
 stresses (elem, integ.pnt.,sxx,syy,szz,sxy,sxz,syz) for set ELALL and time  0.1000000E+01

         1   1  2.204263E+06  1.280803E+05  1.454538E+05  7.602120E+04  9.946865E+04  1.213888E+01
         1   2  2.191064E+06  2.042648E+04  7.069808E+04  3.230594E+04  6.273785E+04  3.253669E+00
         1   3  2.204394E+06 -1.159622E+02  4.157539E+04 -1.140833E+04  2.600644E+04 -4.762707E-01
         1   4  2.204257E+06  1.280694E+05  1.454523E+05  5.164467E-08  9.946864E+04  3.879644E-10
         1   5  2.191063E+06  2.042453E+04  7.069780E+04 -7.059731E-08  6.273785E+04  2.012131E-09
         1   6  2.204393E+06 -1.162059E+02  4.157536E+04 -2.154540E-07  2.600644E+04  4.474002E-09
         1   7  2.204263E+06  1.280803E+05  1.454538E+05 -7.602120E+04  9.946865E+04 -1.213888E+01
         1   8  2.191064E+06  2.042648E+04  7.069808E+04 -3.230594E+04  6.273785E+04 -3.253669E+00
         1   9  2.204394E+06 -1.159622E+02  4.157539E+04  1.140833E+04  2.600644E+04  4.762707E-01
         1  10  2.204253E+06  1.280776E+05  1.454353E+05  7.602120E+04 -1.672936E-08  3.828955E-10
         1  11  2.191060E+06  2.042543E+04  7.069071E+04  3.230594E+04  3.567827E-08  2.361984E-09
         1  12  2.204393E+06 -1.161430E+02  4.157413E+04 -1.140833E+04  8.092873E-08  4.780350E-09
         1  13  2.204246E+06  1.280668E+05  1.454337E+05 -3.624353E-10  1.685769E-11  2.810338E-10
         1  14  2.191059E+06  2.042348E+04  7.069043E+04  2.542592E-09  8.544616E-10  1.906078E-09
         1  15  2.204393E+06 -1.163867E+02  4.157409E+04  1.674977E-10  1.140733E-09  4.532044E-09
         1  16  2.204253E+06  1.280776E+05  1.454353E+05 -7.602120E+04  1.625770E-08  5.375002E-11
         1  17  2.191060E+06  2.042543E+04  7.069071E+04 -3.230594E+04 -3.488049E-08  1.383976E-09
         1  18  2.204393E+06 -1.161430E+02  4.157413E+04  1.140833E+04 -7.986226E-08  4.228177E-09
         1  19  2.204263E+06  1.280803E+05  1.454538E+05  7.602120E+04 -9.946865E+04 -1.213888E+01
         1  20  2.191064E+06  2.042648E+04  7.069808E+04  3.230594E+04 -6.273785E+04 -3.253669E+00
         1  21  2.204394E+06 -1.159622E+02  4.157539E+04 -1.140833E+04 -2.600644E+04  4.762707E-01
         1  22  2.204257E+06  1.280694E+05  1.454523E+05 -5.298015E-08 -9.946864E+04  2.059603E-10
         1  23  2.191063E+06  2.042453E+04  7.069780E+04  7.349929E-08 -6.273785E+04  1.764054E-09
         1  24  2.204393E+06 -1.162059E+02  4.157536E+04  2.146396E-07 -2.600644E+04  4.574468E-09
         1  25  2.204263E+06  1.280803E+05  1.454538E+05 -7.602120E+04 -9.946865E+04  1.213888E+01
         1  26  2.191064E+06  2.042648E+04  7.069808E+04 -3.230594E+04 -6.273785E+04  3.253669E+00
         1  27  2.204394E+06 -1.159622E+02  4.157539E+04  1.140833E+04 -2.600644E+04 -4.762707E-01
         2   1  2.199057E+06  4.817863E+03  3.376288E+04  1.966556E+03  2.026362E+04  6.397024E-02
         2   2  2.197774E+06  2.358389E+02  2.362234E+04  7.960499E+02  8.501700E+03  1.086428E-02
         2   3  2.199066E+06 -1.476600E+02  2.216933E+04 -3.744593E+02 -3.260159E+03  1.959733E-03
         2   4  2.199057E+06  4.817855E+03  3.376288E+04  2.132966E-07  2.026362E+04  4.258011E-09
         2   5  2.197774E+06  2.358378E+02  2.362234E+04  6.846092E-08  8.501700E+03  9.657059E-10
         2   6  2.199066E+06 -1.476602E+02  2.216933E+04 -5.664410E-08 -3.260159E+03 -1.948518E-09
         2   7  2.199057E+06  4.817863E+03  3.376288E+04 -1.966556E+03  2.026362E+04 -6.397023E-02
         2   8  2.197774E+06  2.358389E+02  2.362234E+04 -7.960499E+02  8.501700E+03 -1.086428E-02
         2   9  2.199066E+06 -1.476600E+02  2.216933E+04  3.744593E+02 -3.260159E+03 -1.959737E-03
         2  10  2.199056E+06  4.817753E+03  3.376211E+04  1.966556E+03 -8.012970E-08  4.379468E-09
         2  11  2.197774E+06  2.358196E+02  2.362221E+04  7.960499E+02 -3.567182E-08  7.182758E-10
         2  12  2.199066E+06 -1.476628E+02  2.216931E+04 -3.744593E+02  1.710963E-08 -2.065118E-09
         2  13  2.199056E+06  4.817746E+03  3.376211E+04  8.409626E-10  1.499990E-09  4.430750E-09
         2  14  2.197774E+06  2.358184E+02  2.362220E+04  2.399311E-09  9.204558E-10  1.109855E-09
         2  15  2.199066E+06 -1.476631E+02  2.216931E+04  5.021450E-11  4.641579E-11 -1.721522E-09
         2  16  2.199056E+06  4.817753E+03  3.376211E+04 -1.966556E+03  8.123282E-08  4.556699E-09
         2  17  2.197774E+06  2.358196E+02  2.362221E+04 -7.960499E+02  3.442678E-08  1.416366E-09
         2  18  2.199066E+06 -1.476628E+02  2.216931E+04  3.744593E+02 -1.714425E-08 -1.534721E-09
         2  19  2.199057E+06  4.817863E+03  3.376288E+04  1.966556E+03 -2.026362E+04 -6.397023E-02
         2  20  2.197774E+06  2.358389E+02  2.362234E+04  7.960499E+02 -8.501700E+03 -1.086428E-02
         2  21  2.199066E+06 -1.476600E+02  2.216933E+04 -3.744593E+02  3.260159E+03 -1.959737E-03
         2  22  2.199057E+06  4.817855E+03  3.376288E+04 -2.122337E-07 -2.026362E+04  4.615936E-09
         2  23  2.197774E+06  2.358378E+02  2.362234E+04 -6.766656E-08 -8.501700E+03  1.268346E-09
         2  24  2.199066E+06 -1.476602E+02  2.216933E+04  5.245821E-08  3.260159E+03 -1.541854E-09
         2  25  2.199057E+06  4.817863E+03  3.376288E+04 -1.966556E+03 -2.026362E+04  6.397024E-02
         2  26  2.197774E+06  2.358389E+02  2.362234E+04 -7.960499E+02 -8.501700E+03  1.086428E-02
         2  27  2.199066E+06 -1.476600E+02  2.216933E+04  3.744593E+02  3.260159E+03  1.959734E-03
         3   1  2.199375E+06 -3.361184E+02  2.398313E+04  1.475859E+03 -7.330768E+03 -1.736794E-02
         3   2  2.197382E+06  6.519457E+02  3.357309E+04 -8.335851E+02 -2.407138E+04  3.221116E-02
         3   3  2.199351E+06  8.804204E+03  5.582570E+04 -3.142975E+03 -4.081203E+04  2.059132E-01
         3   4  2.199375E+06 -3.361225E+02  2.398313E+04 -4.517676E-09 -7.330768E+03 -2.389888E-09
         3   5  2.197382E+06  6.519444E+02  3.357309E+04 -1.039003E-09 -2.407138E+04 -1.428859E-09
         3   6  2.199351E+06  8.804185E+03  5.582570E+04 -1.286825E-09 -4.081203E+04 -6.045056E-10
         3   7  2.199375E+06 -3.361184E+02  2.398313E+04 -1.475859E+03 -7.330768E+03  1.736794E-02
         3   8  2.197382E+06  6.519457E+02  3.357309E+04  8.335851E+02 -2.407138E+04 -3.221117E-02
         3   9  2.199351E+06  8.804204E+03  5.582570E+04  3.142975E+03 -4.081203E+04 -2.059132E-01
         3  10  2.199375E+06 -3.361328E+02  2.398303E+04  1.475859E+03 -2.103907E-09 -2.359785E-09
         3  11  2.197381E+06  6.517908E+02  3.357201E+04 -8.335851E+02 -1.622054E-09 -1.251365E-09
         3  12  2.199349E+06  8.803758E+03  5.582258E+04 -3.142975E+03 -1.011166E-09 -5.679489E-10
         3  13  2.199375E+06 -3.361369E+02  2.398302E+04 -2.940498E-10 -8.317041E-11 -2.206018E-09
         3  14  2.197381E+06  6.517895E+02  3.357201E+04  4.476697E-10  5.356977E-28 -1.359435E-09
         3  15  2.199349E+06  8.803740E+03  5.582258E+04  3.809487E-10 -1.346303E-10 -5.413273E-10
         3  16  2.199375E+06 -3.361328E+02  2.398303E+04 -1.475859E+03  2.215600E-09 -2.123540E-09
         3  17  2.197381E+06  6.517908E+02  3.357201E+04  8.335851E+02  1.077523E-09 -1.443941E-09
         3  18  2.199349E+06  8.803758E+03  5.582258E+04  3.142975E+03  1.206015E-09 -5.226982E-10
         3  19  2.199375E+06 -3.361184E+02  2.398313E+04  1.475859E+03  7.330768E+03  1.736794E-02
         3  20  2.197382E+06  6.519457E+02  3.357309E+04 -8.335851E+02  2.407138E+04 -3.221117E-02
         3  21  2.199351E+06  8.804204E+03  5.582570E+04 -3.142975E+03  4.081203E+04 -2.059132E-01
         3  22  2.199375E+06 -3.361225E+02  2.398313E+04  1.617816E-09  7.330768E+03 -2.020935E-09
         3  23  2.197382E+06  6.519444E+02  3.357309E+04  2.199609E-09  2.407138E+04 -1.258830E-09
         3  24  2.199351E+06  8.804185E+03  5.582570E+04  6.551474E-11  4.081203E+04 -4.462937E-10
         3  25  2.199375E+06 -3.361184E+02  2.398313E+04 -1.475859E+03  7.330768E+03 -1.736794E-02
         3  26  2.197382E+06  6.519457E+02  3.357309E+04  8.335851E+02  2.407138E+04  3.221116E-02
         3  27  2.199351E+06  8.804204E+03  5.582570E+04  3.142975E+03  4.081203E+04  2.059132E-01
         4   1  2.209089E+06 -1.142868E+02  7.124568E+04  2.084378E+04 -5.037513E+04 -1.685549E+00
         4   2  2.185137E+06  3.685515E+04  1.256554E+05 -5.796206E+04 -1.156918E+05  1.076499E+01
         4   3  2.208863E+06  2.307278E+05  2.617166E+05 -1.367743E+05 -1.810093E+05  3.974353E+01
         4   4  2.209089E+06 -1.151004E+02  7.124556E+04 -8.119115E-10 -5.037513E+04 -2.334988E-10
         4   5  2.185134E+06  3.684886E+04  1.256545E+05  1.018888E-09 -1.156918E+05  1.256613E-10
         4   6  2.208843E+06  2.306928E+05  2.617116E+05 -1.015571E-09 -1.810093E+05  1.252874E-10
         4   7  2.209089E+06 -1.142868E+02  7.124568E+04 -2.084378E+04 -5.037513E+04  1.685549E+00
         4   8  2.185137E+06  3.685515E+04  1.256554E+05  5.796206E+04 -1.156918E+05 -1.076499E+01
         4   9  2.208863E+06  2.307278E+05  2.617166E+05  1.367743E+05 -1.810093E+05 -3.974353E+01
         4  10  2.209087E+06 -1.149651E+02  7.124093E+04  2.084378E+04 -4.354673E-10 -1.592707E-10
         4  11  2.185123E+06  3.685157E+04  1.256303E+05 -5.796206E+04  2.010341E-10  4.283109E-12
         4  12  2.208827E+06  2.307190E+05  2.616553E+05 -1.367743E+05  3.184008E-10  9.411871E-12
         4  13  2.209086E+06 -1.157787E+02  7.124081E+04 -1.254708E-10  9.720433E-11 -1.762127E-10
         4  14  2.185119E+06  3.684528E+04  1.256294E+05 -5.305207E-10  7.113034E-10  4.958889E-11
         4  15  2.208807E+06  2.306840E+05  2.616503E+05  4.139315E-11 -1.935468E-10  5.545888E-11
         4  16  2.209087E+06 -1.149651E+02  7.124093E+04 -2.084378E+04  3.220603E-10 -1.181112E-10
         4  17  2.185123E+06  3.685157E+04  1.256303E+05  5.796206E+04 -6.317678E-10  1.658525E-10
         4  18  2.208827E+06  2.307190E+05  2.616553E+05  1.367743E+05 -4.897266E-10  6.705435E-11
         4  19  2.209089E+06 -1.142868E+02  7.124568E+04  2.084378E+04  5.037513E+04  1.685549E+00
         4  20  2.185137E+06  3.685515E+04  1.256554E+05 -5.796206E+04  1.156918E+05 -1.076499E+01
         4  21  2.208863E+06  2.307278E+05  2.617166E+05 -1.367743E+05  1.810093E+05 -3.974353E+01
         4  22  2.209089E+06 -1.151004E+02  7.124556E+04 -1.144376E-09  5.037513E+04 -1.353163E-10
         4  23  2.185134E+06  3.684886E+04  1.256545E+05 -2.105227E-09  1.156918E+05 -4.831458E-12
         4  24  2.208843E+06  2.306928E+05  2.617116E+05 -1.562994E-09  1.810093E+05 -2.360323E-11
         4  25  2.209089E+06 -1.142868E+02  7.124568E+04 -2.084378E+04  5.037513E+04 -1.685549E+00
         4  26  2.185137E+06  3.685515E+04  1.256554E+05  5.796206E+04  1.156918E+05  1.076499E+01
         4  27  2.208863E+06  2.307278E+05  2.617166E+05  1.367743E+05  1.810093E+05  3.974353E+01
         5   1 -8.246668E+05 -2.077431E+06 -8.263693E+05  5.954066E+05 -3.137152E+04 -2.863670E+05
         5   2 -5.172137E+05 -1.500711E+06 -5.164858E+05  4.615138E+05 -9.452502E+04 -1.380050E+05
         5   3 -3.521511E+05 -9.783186E+05 -3.389418E+05  4.688436E+05 -9.030017E+04  1.049332E+04
         5   4 -1.854144E+05  5.010348E+05 -2.102690E+05  4.877290E+05 -3.118036E+04 -1.473288E+05
         5   5 -2.949049E+04  5.201774E+05 -9.938571E+04  4.169934E+05 -9.443466E+04 -9.553367E+04
         5   6  1.110879E+03  5.016939E+05 -5.346804E+04  4.875155E+05 -9.038001E+04 -4.374728E+04
         5   7  4.534116E+05  3.085673E+06  4.054424E+05  3.795975E+05 -3.103815E+04 -7.713186E+03
         5   8  4.579833E+05  2.544952E+06  3.175020E+05  3.723229E+05 -9.435063E+04 -5.292587E+04
         5   9  3.542455E+05  1.983821E+06  2.319153E+05  5.062314E+05 -9.046297E+04 -9.811429E+04
         5  10 -8.246899E+05 -2.077519E+06 -8.265257E+05  5.953993E+05 -1.589542E-10 -8.620459E-10
         5  11 -5.172284E+05 -1.500734E+06 -5.165384E+05  4.615033E+05 -8.401810E-10 -1.804653E-10
         5  12 -3.521599E+05 -9.783209E+05 -3.389573E+05  4.688444E+05 -3.232029E-10  6.642392E-10
         5  13 -1.854213E+05  5.010112E+05 -2.103116E+05  4.877253E+05  3.479983E-10 -1.245927E-11
         5  14 -2.950251E+04  5.201652E+05 -9.941959E+04  4.169861E+05 -1.692939E-10  3.316483E-12
         5  15  1.101597E+03  5.016897E+05 -5.348697E+04  4.875124E+05  4.498990E-10 -5.084490E-12
         5  16  4.534105E+05  3.085672E+06  4.054405E+05  3.795973E+05 -1.857751E-10  8.892581E-10
         5  17  4.579730E+05  2.544947E+06  3.174800E+05  3.723189E+05 -1.362341E-10  1.707093E-10
         5  18  3.542342E+05  1.983808E+06  2.318819E+05  5.062242E+05 -3.112502E-11 -6.839084E-10
         5  19 -8.246668E+05 -2.077431E+06 -8.263693E+05  5.954066E+05  3.137152E+04  2.863670E+05
         5  20 -5.172137E+05 -1.500711E+06 -5.164858E+05  4.615138E+05  9.452502E+04  1.380050E+05
         5  21 -3.521511E+05 -9.783186E+05 -3.389418E+05  4.688436E+05  9.030017E+04 -1.049332E+04
         5  22 -1.854144E+05  5.010348E+05 -2.102690E+05  4.877290E+05  3.118036E+04  1.473288E+05
         5  23 -2.949049E+04  5.201774E+05 -9.938571E+04  4.169934E+05  9.443466E+04  9.553367E+04
         5  24  1.110879E+03  5.016939E+05 -5.346804E+04  4.875155E+05  9.038001E+04  4.374728E+04
         5  25  4.534116E+05  3.085673E+06  4.054424E+05  3.795975E+05  3.103815E+04  7.713186E+03
         5  26  4.579833E+05  2.544952E+06  3.175020E+05  3.723229E+05  9.435063E+04  5.292587E+04
         5  27  3.542455E+05  1.983821E+06  2.319153E+05  5.062314E+05  9.046297E+04  9.811429E+04
         6   1 -2.696518E+05 -5.961044E+05 -2.525105E+05  4.890168E+05 -6.794045E+04  5.820370E+03
         6   2 -1.313518E+05 -4.587566E+04 -1.219756E+05  4.156858E+05 -3.726518E+04  1.742076E+04
         6   3  2.564126E+03  5.016698E+05 -2.223559E+02  4.873585E+05 -4.653789E+03  2.901321E+04
         6   4 -5.922340E+03  5.096996E+05 -3.973194E+04  4.883751E+05 -6.801453E+04 -3.693637E+04
         6   5  8.467633E+02  5.110333E+05 -1.774920E+04  4.158670E+05 -3.735466E+04 -2.812170E+04
         6   6  3.738415E+03  5.098904E+05 -2.591400E+03  4.883554E+05 -4.760231E+03 -1.932482E+04
         6   7  2.577357E+05  1.616684E+06  1.729971E+05  4.877313E+05 -6.808844E+04 -7.976752E+04
         6   8  1.330285E+05  1.068247E+06  8.647160E+04  4.160481E+05 -3.744411E+04 -7.370397E+04
         6   9  4.913966E+03  5.181162E+05 -4.951636E+03  4.893524E+05 -4.866827E+03 -6.766336E+04
         6  10 -2.696568E+05 -5.961057E+05 -2.525193E+05  4.890171E+05  1.068030E-11 -5.866331E-10
         6  11 -1.313533E+05 -4.587636E+04 -1.219788E+05  4.156863E+05 -7.110091E-10 -3.507575E-10
         6  12  2.563876E+03  5.016688E+05 -2.239777E+02  4.873586E+05  1.056746E-10  1.070355E-10
         6  13 -5.927672E+03  5.096968E+05 -3.974318E+04  4.883731E+05  4.192775E-10  2.228500E-11
         6  14  8.450535E+02  5.110321E+05 -1.775331E+04  4.158661E+05 -1.493146E-09 -7.128139E-11
         6  15  3.738290E+03  5.098900E+05 -2.592144E+03  4.883553E+05 -3.966066E-10 -2.504504E-11
         6  16  2.577290E+05  1.616676E+06  1.729765E+05  4.877270E+05 -1.391877E-10  5.110120E-10
         6  17  1.330255E+05  1.068240E+06  8.645878E+04  4.160459E+05 -1.635113E-10  1.669424E-10
         6  18  4.912713E+03  5.181113E+05 -4.960276E+03  4.893521E+05 -5.617309E-10 -1.133424E-10
         6  19 -2.696518E+05 -5.961044E+05 -2.525105E+05  4.890168E+05  6.794045E+04 -5.820370E+03
         6  20 -1.313518E+05 -4.587566E+04 -1.219756E+05  4.156858E+05  3.726518E+04 -1.742076E+04
         6  21  2.564126E+03  5.016698E+05 -2.223559E+02  4.873585E+05  4.653789E+03 -2.901321E+04
         6  22 -5.922340E+03  5.096996E+05 -3.973194E+04  4.883751E+05  6.801453E+04  3.693637E+04
         6  23  8.467633E+02  5.110333E+05 -1.774920E+04  4.158670E+05  3.735466E+04  2.812170E+04
         6  24  3.738415E+03  5.098904E+05 -2.591400E+03  4.883554E+05  4.760231E+03  1.932482E+04
         6  25  2.577357E+05  1.616684E+06  1.729971E+05  4.877313E+05  6.808844E+04  7.976752E+04
         6  26  1.330285E+05  1.068247E+06  8.647160E+04  4.160481E+05  3.744411E+04  7.370397E+04
         6  27  4.913966E+03  5.181162E+05 -4.951636E+03  4.893524E+05  4.866827E+03  6.766336E+04
         7   1  8.951923E+04  8.777106E+05  7.850567E+04  4.838247E+05  1.792268E+04  3.543496E+04
         7   2  2.289914E+05  1.417887E+06  2.133430E+05  4.282568E+05  3.574114E+04 -3.240243E+04
         7   3  4.089923E+05  1.977017E+06  4.023049E+05  5.155725E+05  1.369000E+04 -1.002601E+05
         7   4  1.622416E+03  5.123591E+05  3.972741E+03  4.878998E+05  1.780465E+04 -1.919668E+04
         7   5  8.393042E+03  5.078210E+05  1.964203E+04  4.164203E+05  3.575120E+04 -2.951855E+04
         7   6  4.577378E+04  5.120278E+05  4.957611E+04  4.878253E+05  1.380482E+04 -3.980043E+04
         7   7 -8.628107E+04  1.471408E+05 -7.055601E+04  4.919723E+05  1.768585E+04 -7.379680E+04
         7   8 -2.122587E+05 -4.014661E+05 -1.741064E+05  4.046008E+05  3.576116E+04 -2.663880E+04
         7   9 -3.175964E+05 -9.509935E+05 -3.032916E+05  4.601419E+05  1.391444E+04  2.051754E+04
         7  10  8.951855E+04  8.777092E+05  7.850272E+04  4.838242E+05  3.032676E-10 -5.718546E-10
         7  11  2.289898E+05  1.417886E+06  2.133386E+05  4.282577E+05  9.764730E-11  3.533828E-11
         7  12  4.089894E+05  1.977006E+06  4.022857E+05  5.155736E+05  1.639520E-10  4.810220E-10
         7  13  1.621976E+03  5.123586E+05  3.971452E+03  4.879001E+05  3.461018E-10 -6.152579E-11
         7  14  8.391435E+03  5.078197E+05  1.963799E+04  4.164212E+05  2.123409E-12 -8.077963E-12
         7  15  4.577315E+04  5.120260E+05  4.957277E+04  4.878257E+05  3.279436E-10  3.180192E-11
         7  16 -8.628287E+04  1.471349E+05 -7.056683E+04  4.919734E+05 -5.447306E-10  5.163052E-10
         7  17 -2.122602E+05 -4.014672E+05 -1.741101E+05  4.046016E+05 -2.750283E-10  9.478946E-11
         7  18 -3.175967E+05 -9.509940E+05 -3.032928E+05  4.601417E+05 -3.251050E-10 -4.458186E-10
         7  19  8.951923E+04  8.777106E+05  7.850567E+04  4.838247E+05 -1.792268E+04 -3.543496E+04
         7  20  2.289914E+05  1.417887E+06  2.133430E+05  4.282568E+05 -3.574114E+04  3.240243E+04
         7  21  4.089923E+05  1.977017E+06  4.023049E+05  5.155725E+05 -1.369000E+04  1.002601E+05
         7  22  1.622416E+03  5.123591E+05  3.972741E+03  4.878998E+05 -1.780465E+04  1.919668E+04
         7  23  8.393042E+03  5.078210E+05  1.964203E+04  4.164203E+05 -3.575120E+04  2.951855E+04
         7  24  4.577378E+04  5.120278E+05  4.957611E+04  4.878253E+05 -1.380482E+04  3.980043E+04
         7  25 -8.628107E+04  1.471408E+05 -7.055601E+04  4.919723E+05 -1.768585E+04  7.379680E+04
         7  26 -2.122587E+05 -4.014661E+05 -1.741064E+05  4.046008E+05 -3.576116E+04  2.663880E+04
         7  27 -3.175964E+05 -9.509935E+05 -3.032916E+05  4.601419E+05 -1.391444E+04 -2.051754E+04
         8   1  6.505605E+05  2.169999E+05 -1.270409E+05  5.377887E+05 -9.554206E+03  6.485873E+03
         8   2  7.150887E+05  2.347843E+05 -1.123733E+05  5.929982E+05 -1.348976E+04  3.369222E+04
         8   3  8.219628E+05  2.523609E+05 -9.750012E+04  6.274678E+05 -4.968544E+03  4.429198E+04
         8   4  1.280524E+06  6.071684E+05  6.690269E+04  8.235714E+05  3.028607E+04  3.635292E+04
         8   5  1.246194E+06  5.858232E+05  3.227746E+04  8.481159E+05  2.397475E+03  4.559499E+04
         8   6  1.259372E+06  5.694382E+05  1.860462E+04  8.519209E+05 -1.304238E+04  3.823928E+04
         8   7  1.910904E+06  9.974829E+05  2.608065E+05  1.109655E+06  7.018119E+04  6.625410E+04
         8   8  1.777608E+06  9.369962E+05  1.769019E+05  1.103472E+06  1.830297E+04  5.751026E+04
         8   9  1.696996E+06  8.866351E+05  1.346929E+05  1.076557E+06 -2.112385E+04  3.218064E+04
         8  10  6.505604E+05  2.169998E+05 -1.270411E+05  5.377888E+05  4.586165E-10 -1.107942E-10
         8  11  7.150882E+05  2.347830E+05 -1.123758E+05  5.929985E+05 -3.891025E-10 -4.466262E-10
         8  12  8.219623E+05  2.523588E+05 -9.750385E+04  6.274679E+05  6.936130E-10 -3.230187E-10
         8  13  1.280523E+06  6.071667E+05  6.689850E+04  8.235705E+05  3.194188E-11 -6.957654E-11
         8  14  1.246193E+06  5.858209E+05  3.227354E+04  8.481158E+05  3.731434E-10 -7.144983E-11
         8  15  1.259371E+06  5.694365E+05  1.860155E+04  8.519213E+05  7.035519E-10  8.730042E-11
         8  16  1.910898E+06  9.974769E+05  2.607891E+05  1.109651E+06 -4.164360E-10  1.570473E-11
         8  17  1.777607E+06  9.369926E+05  1.768951E+05  1.103471E+06 -5.936339E-10  2.391668E-10
         8  18  1.696996E+06  8.866338E+05  1.346901E+05  1.076558E+06  2.376592E-10  4.544131E-10
         8  19  6.505605E+05  2.169999E+05 -1.270409E+05  5.377887E+05  9.554206E+03 -6.485873E+03
         8  20  7.150887E+05  2.347843E+05 -1.123733E+05  5.929982E+05  1.348976E+04 -3.369222E+04
         8  21  8.219628E+05  2.523609E+05 -9.750012E+04  6.274678E+05  4.968544E+03 -4.429198E+04
         8  22  1.280524E+06  6.071684E+05  6.690269E+04  8.235714E+05 -3.028607E+04 -3.635292E+04
         8  23  1.246194E+06  5.858232E+05  3.227746E+04  8.481159E+05 -2.397475E+03 -4.559499E+04
         8  24  1.259372E+06  5.694382E+05  1.860462E+04  8.519209E+05  1.304238E+04 -3.823928E+04
         8  25  1.910904E+06  9.974829E+05  2.608065E+05  1.109655E+06 -7.018119E+04 -6.625410E+04
         8  26  1.777608E+06  9.369962E+05  1.769019E+05  1.103472E+06 -1.830297E+04 -5.751026E+04
         8  27  1.696996E+06  8.866351E+05  1.346929E+05  1.076557E+06  2.112385E+04 -3.218064E+04
         9   1  8.670882E+05  2.950215E+05 -8.745244E+04  6.527790E+05 -7.466942E+03  3.724041E+04
         9   2  9.286762E+05  3.592833E+05 -7.169646E+04  6.949746E+05 -6.477460E+03  3.152099E+04
         9   3  1.017452E+06  3.985483E+05 -5.385690E+04  7.291663E+05 -4.610197E+03  2.462542E+04
         9   4  1.258835E+06  5.697958E+05  1.480967E+04  8.495588E+05 -1.258224E+04  3.340539E+04
         9   5  1.244652E+06  5.813656E+05  9.556648E+03  8.541365E+05 -1.329093E+04  2.641567E+04
         9   6  1.258014E+06  5.683028E+05  7.854716E+03  8.507048E+05 -1.312180E+04  1.825052E+04
         9   7  1.650762E+06  8.446631E+05  1.170610E+05  1.046483E+06 -1.770195E+04  2.956709E+04
         9   8  1.560742E+06  8.035064E+05  9.080191E+04  1.013391E+06 -2.010904E+04  2.130687E+04
         9   9  1.498638E+06  7.380891E+05  6.956082E+04  9.722956E+05 -2.163770E+04  1.187239E+04
         9  10  8.670877E+05  2.950200E+05 -8.745515E+04  6.527793E+05  1.269921E-09  2.089867E-10
         9  11  9.286759E+05  3.592822E+05 -7.169841E+04  6.949748E+05  1.069756E-09  4.996011E-11
         9  12  1.017452E+06  3.985476E+05 -5.385808E+04  7.291664E+05 -1.339031E-10 -1.065673E-10
         9  13  1.258835E+06  5.697946E+05  1.480727E+04  8.495591E+05 -2.712976E-11  6.368477E-11
         9  14  1.244652E+06  5.813648E+05  9.555004E+03  8.541368E+05 -5.318249E-10 -1.093050E-10
         9  15  1.258014E+06  5.683024E+05  7.853766E+03  8.507050E+05  3.199483E-10  7.283603E-11
         9  16  1.650761E+06  8.446621E+05  1.170588E+05  1.046484E+06 -1.626702E-10 -1.155409E-10
         9  17  1.560741E+06  8.035058E+05  9.080030E+04  1.013391E+06 -1.410815E-10 -8.705580E-11
         9  18  1.498638E+06  7.380888E+05  6.955968E+04  9.722958E+05  6.448865E-10  2.454954E-10
         9  19  8.670882E+05  2.950215E+05 -8.745244E+04  6.527790E+05  7.466942E+03 -3.724041E+04
         9  20  9.286762E+05  3.592833E+05 -7.169646E+04  6.949746E+05  6.477460E+03 -3.152099E+04
         9  21  1.017452E+06  3.985483E+05 -5.385690E+04  7.291663E+05  4.610197E+03 -2.462542E+04
         9  22  1.258835E+06  5.697958E+05  1.480967E+04  8.495588E+05  1.258224E+04 -3.340539E+04
         9  23  1.244652E+06  5.813656E+05  9.556648E+03  8.541365E+05  1.329093E+04 -2.641567E+04
         9  24  1.258014E+06  5.683028E+05  7.854716E+03  8.507048E+05  1.312180E+04 -1.825052E+04
         9  25  1.650762E+06  8.446631E+05  1.170610E+05  1.046483E+06  1.770195E+04 -2.956709E+04
         9  26  1.560742E+06  8.035064E+05  9.080191E+04  1.013391E+06  2.010904E+04 -2.130687E+04
         9  27  1.498638E+06  7.380891E+05  6.956082E+04  9.722956E+05  2.163770E+04 -1.187239E+04
        10   1  1.067789E+06  4.347298E+05 -4.035352E+04  7.547464E+05 -3.375431E+03  2.018061E+04
        10   2  1.128972E+06  5.004552E+05 -1.934218E+04  7.962870E+05 -2.976981E+03  1.147614E+04
        10   3  1.216970E+06  5.405516E+05  4.959703E+03  8.303138E+05 -2.559145E+03  2.742906E+03
        10   4  1.257998E+06  5.683364E+05  7.949727E+03  8.506281E+05 -1.167783E+04  1.396330E+04
        10   5  1.244621E+06  5.812026E+05  1.000065E+04  8.543497E+05 -1.132139E+04  5.228172E+03
        10   6  1.258062E+06  5.684452E+05  1.537757E+04  8.505521E+05 -1.094497E+04 -3.535276E+03
        10   7  1.448248E+06  7.019644E+05  5.625056E+04  9.465435E+05 -1.998363E+04  7.743453E+03
        10   8  1.360287E+06  6.619586E+05  3.934315E+04  9.124253E+05 -1.966794E+04 -1.021386E+03
        10   9  1.299156E+06  5.963404E+05  2.579593E+04  8.707923E+05 -1.933168E+04 -9.814087E+03
        10  10  1.067788E+06  4.347293E+05 -4.035430E+04  7.547464E+05  4.682013E-10  2.435907E-10
        10  11  1.128972E+06  5.004550E+05 -1.934244E+04  7.962871E+05  3.519812E-10  6.270511E-11
        10  12  1.216970E+06  5.405516E+05  4.959676E+03  8.303138E+05  1.106038E-09  5.580465E-11
        10  13  1.257997E+06  5.683361E+05  7.949104E+03  8.506282E+05  5.592458E-10  1.695868E-10
        10  14  1.244621E+06  5.812025E+05  1.000036E+04  8.543498E+05 -1.021155E-09  9.665022E-11
        10  15  1.258061E+06  5.684452E+05  1.537732E+04  8.505521E+05  1.266642E-09 -1.121715E-10
        10  16  1.448248E+06  7.019642E+05  5.624970E+04  9.465437E+05 -9.673869E-11  1.601120E-10
        10  17  1.360286E+06  6.619585E+05  3.934243E+04  9.124253E+05 -3.530470E-11  1.039613E-10
        10  18  1.299155E+06  5.963401E+05  2.579505E+04  8.707922E+05  1.260288E-10 -4.171696E-10
        10  19  1.067789E+06  4.347298E+05 -4.035352E+04  7.547464E+05  3.375431E+03 -2.018061E+04
        10  20  1.128972E+06  5.004552E+05 -1.934218E+04  7.962870E+05  2.976981E+03 -1.147614E+04
        10  21  1.216970E+06  5.405516E+05  4.959703E+03  8.303138E+05  2.559145E+03 -2.742906E+03
        10  22  1.257998E+06  5.683364E+05  7.949727E+03  8.506281E+05  1.167783E+04 -1.396330E+04
        10  23  1.244621E+06  5.812026E+05  1.000065E+04  8.543497E+05  1.132139E+04 -5.228172E+03
        10  24  1.258062E+06  5.684452E+05  1.537757E+04  8.505521E+05  1.094497E+04  3.535276E+03
        10  25  1.448248E+06  7.019644E+05  5.625056E+04  9.465435E+05  1.998363E+04 -7.743453E+03
        10  26  1.360287E+06  6.619586E+05  3.934315E+04  9.124253E+05  1.966794E+04  1.021386E+03
        10  27  1.299156E+06  5.963404E+05  2.579593E+04  8.707923E+05  1.933168E+04  9.814087E+03
        11   1  1.266634E+06  5.775103E+05  2.259235E+04  8.567754E+05 -2.345530E+03 -2.461122E+03
        11   2  1.329952E+06  6.406955E+05  5.555008E+04  8.959604E+05 -1.260307E+04 -1.876149E+04
        11   3  1.425051E+06  6.844478E+05  1.021878E+05  9.257314E+05 -2.341164E+04 -3.433001E+04
        11   4  1.258361E+06  5.684276E+05  1.963505E+04  8.511360E+05 -1.084711E+04 -8.825880E+03
        11   5  1.244419E+06  5.815411E+05  3.338232E+04  8.533754E+05 -2.004408E+04 -2.433281E+04
        11   6  1.262026E+06  5.749924E+05  5.989577E+04  8.461971E+05 -2.978988E+04 -3.910631E+04
        11   7  1.250087E+06  5.593454E+05  1.667822E+04  8.454969E+05 -1.934840E+04 -1.519034E+04
        11   8  1.158895E+06  5.223914E+05  1.121452E+04  8.107974E+05 -2.748366E+04 -2.990307E+04
        11   9  1.099032E+06  4.655509E+05  1.760178E+04  7.666861E+05 -3.616585E+04 -4.388103E+04
        11  10  1.266634E+06  5.775103E+05  2.259233E+04  8.567754E+05  2.044090E-10 -2.674120E-10
        11  11  1.329952E+06  6.406951E+05  5.554912E+04  8.959602E+05 -1.044432E-09 -1.388772E-10
        11  12  1.425050E+06  6.844464E+05  1.021846E+05  9.257308E+05  2.895153E-10 -2.507099E-11
        11  13  1.258361E+06  5.684275E+05  1.963469E+04  8.511360E+05  3.208160E-10 -1.873681E-10
        11  14  1.244418E+06  5.815404E+05  3.338046E+04  8.533750E+05  4.044228E-10 -1.646950E-10
        11  15  1.262025E+06  5.749906E+05  5.989124E+04  8.461961E+05 -2.456438E-10  5.775491E-11
        11  16  1.250087E+06  5.593450E+05  1.667708E+04  8.454967E+05  3.418124E-10 -5.326572E-11
        11  17  1.158894E+06  5.223903E+05  1.121143E+04  8.107967E+05  5.044446E-10  1.090934E-10
        11  18  1.099030E+06  4.655485E+05  1.759571E+04  7.666848E+05 -4.759069E-10  7.210876E-11
        11  19  1.266634E+06  5.775103E+05  2.259235E+04  8.567754E+05  2.345530E+03  2.461122E+03
        11  20  1.329952E+06  6.406955E+05  5.555008E+04  8.959604E+05  1.260307E+04  1.876149E+04
        11  21  1.425051E+06  6.844478E+05  1.021878E+05  9.257314E+05  2.341164E+04  3.433001E+04
        11  22  1.258361E+06  5.684276E+05  1.963505E+04  8.511360E+05  1.084711E+04  8.825880E+03
        11  23  1.244419E+06  5.815411E+05  3.338232E+04  8.533754E+05  2.004408E+04  2.433281E+04
        11  24  1.262026E+06  5.749924E+05  5.989577E+04  8.461971E+05  2.978988E+04  3.910631E+04
        11  25  1.250087E+06  5.593454E+05  1.667822E+04  8.454969E+05  1.934840E+04  1.519034E+04
        11  26  1.158895E+06  5.223914E+05  1.121452E+04  8.107974E+05  2.748366E+04  2.990307E+04
        11  27  1.099032E+06  4.655509E+05  1.760178E+04  7.666861E+05  3.616585E+04  4.388103E+04
        12   1  1.453823E+06  7.437075E+05  1.335503E+05  9.689818E+05 -2.729796E+04 -4.247648E+04
        12   2  1.597284E+06  7.418687E+05  2.197325E+05  9.523115E+05 -9.972928E+04 -9.752298E+04
        12   3  1.866175E+06  8.486225E+05  4.094535E+05  8.698551E+05 -1.799411E+05 -1.422169E+05
        12   4  1.265283E+06  5.726731E+05  7.764383E+04  8.562404E+05 -3.551459E+04 -4.862755E+04
        12   5  1.250230E+06  6.021560E+05  1.390255E+05  8.274843E+05 -9.296747E+04 -9.247783E+04