    1C
    1UUSER                                                              
    1UDATE              21.september.2022                               
    1UTIME              09:10:54                                        
    1UHOST                                                              
    1UPGM               CalculiX                                        
    1UVERSION           Version 2.19                             
    1UCOMPILETIME       Fri Dec 17 13:15:26 CET 2021                    
    1UDIR                                                               
    1UDBN                                                               
    1UMAT    1MESH_MATERIAL                                             
    2C                           641                                     1
 -1         1 0.00000E+00 0.00000E+00 0.00000E+00
 -1         2 8.33333E-03 0.00000E+00 0.00000E+00
 -1         3 1.66667E-02 0.00000E+00 0.00000E+00
 -1         4 2.50000E-02 0.00000E+00 0.00000E+00
 -1         5 3.33333E-02 0.00000E+00 0.00000E+00
 -1         6 4.16667E-02 0.00000E+00 0.00000E+00
 -1         7 5.00000E-02 0.00000E+00 0.00000E+00
 -1         8 5.83333E-02 0.00000E+00 0.00000E+00
 -1         9 6.66667E-02 0.00000E+00 0.00000E+00
 -1        14 0.00000E+00 6.25000E-03 0.00000E+00
 -1        15 8.33333E-03 6.25000E-03 0.00000E+00
 -1        16 1.66667E-02 6.25000E-03 0.00000E+00
 -1        17 2.50000E-02 6.25000E-03 0.00000E+00
 -1        18 3.33333E-02 6.25000E-03 0.00000E+00
 -1        19 4.16667E-02 6.25000E-03 0.00000E+00
 -1        20 5.00000E-02 6.25000E-03 0.00000E+00
 -1        21 5.83333E-02 6.25000E-03 0.00000E+00
 -1        22 6.66667E-02 6.25000E-03 0.00000E+00
 -1        27 0.00000E+00 1.25000E-02 0.00000E+00
 -1        28 8.33333E-03 1.25000E-02 0.00000E+00
 -1        29 1.66667E-02 1.25000E-02 0.00000E+00
 -1        30 2.50000E-02 1.25000E-02 0.00000E+00
 -1        31 3.33333E-02 1.25000E-02 0.00000E+00
 -1        32 4.16667E-02 1.25000E-02 0.00000E+00
 -1        33 5.00000E-02 1.25000E-02 0.00000E+00
 -1        34 5.83333E-02 1.25000E-02 0.00000E+00
 -1        35 6.66667E-02 1.25000E-02 0.00000E+00
 -1        36 7.50000E-02 1.25000E-02 0.00000E+00
 -1        37 8.33333E-02 1.25000E-02 0.00000E+00
 -1        38 9.16667E-02 1.25000E-02 0.00000E+00
 -1        39 1.00000E-01 1.25000E-02 0.00000E+00
 -1        40 0.00000E+00 1.87500E-02 0.00000E+00
 -1        41 8.33333E-03 1.87500E-02 0.00000E+00
 -1        42 1.66667E-02 1.87500E-02 0.00000E+00
 -1        43 2.50000E-02 1.87500E-02 0.00000E+00
 -1        44 3.33333E-02 1.87500E-02 0.00000E+00
 -1        45 4.16667E-02 1.87500E-02 0.00000E+00
 -1        46 5.00000E-02 1.87500E-02 0.00000E+00
 -1        47 5.83333E-02 1.87500E-02 0.00000E+00
 -1        48 6.66667E-02 1.87500E-02 0.00000E+00
 -1        49 7.50000E-02 1.87500E-02 0.00000E+00
 -1        50 8.33333E-02 1.87500E-02 0.00000E+00
 -1        51 9.16667E-02 1.87500E-02 0.00000E+00
 -1        52 1.00000E-01 1.87500E-02 0.00000E+00
 -1        53 0.00000E+00 2.50000E-02 0.00000E+00
 -1        54 8.33333E-03 2.50000E-02 0.00000E+00
 -1        55 1.66667E-02 2.50000E-02 0.00000E+00
 -1        56 2.50000E-02 2.50000E-02 0.00000E+00
 -1        57 3.33333E-02 2.50000E-02 0.00000E+00
 -1        58 4.16667E-02 2.50000E-02 0.00000E+00
 -1        59 5.00000E-02 2.50000E-02 0.00000E+00
 -1        60 5.83333E-02 2.50000E-02 0.00000E+00
 -1        61 6.66667E-02 2.50000E-02 0.00000E+00
 -1        62 7.50000E-02 2.50000E-02 0.00000E+00
 -1        63 8.33333E-02 2.50000E-02 0.00000E+00
 -1        64 9.16667E-02 2.50000E-02 0.00000E+00
 -1        65 1.00000E-01 2.50000E-02 0.00000E+00
 -1        66 1.04167E-03 0.00000E+00 0.00000E+00
 -1        67 2.08333E-03 0.00000E+00 0.00000E+00
 -1        68 3.12500E-03 0.00000E+00 0.00000E+00
 -1        69 4.16667E-03 0.00000E+00 0.00000E+00
 -1        70 5.20833E-03 0.00000E+00 0.00000E+00
 -1        71 6.25000E-03 0.00000E+00 0.00000E+00
 -1        72 7.29167E-03 0.00000E+00 0.00000E+00
 -1        73 0.00000E+00 1.04167E-03 0.00000E+00
 -1        74 0.00000E+00 2.08333E-03 0.00000E+00
 -1        75 0.00000E+00 3.12500E-03 0.00000E+00
 -1        76 0.00000E+00 4.16667E-03 0.00000E+00
 -1        77 0.00000E+00 5.20833E-03 0.00000E+00
 -1        78 9.37500E-03 0.00000E+00 0.00000E+00
 -1        79 1.04167E-02 0.00000E+00 0.00000E+00
 -1        80 1.14583E-02 0.00000E+00 0.00000E+00
 -1        81 1.25000E-02 0.00000E+00 0.00000E+00
 -1        82 1.35417E-02 0.00000E+00 0.00000E+00
 -1        83 1.45833E-02 0.00000E+00 0.00000E+00
 -1        84 1.56250E-02 0.00000E+00 0.00000E+00
 -1        85 8.33333E-03 1.04167E-03 0.00000E+00
 -1        86 8.33333E-03 2.08333E-03 0.00000E+00
 -1        87 8.33333E-03 3.12500E-03 0.00000E+00
 -1        88 8.33333E-03 4.16667E-03 0.00000E+00
 -1        89 8.33333E-03 5.20833E-03 0.00000E+00
 -1        90 1.77083E-02 0.00000E+00 0.00000E+00
 -1        91 1.87500E-02 0.00000E+00 0.00000E+00
 -1        92 1.97917E-02 0.00000E+00 0.00000E+00
 -1        93 2.08333E-02 0.00000E+00 0.00000E+00
 -1        94 2.18750E-02 0.00000E+00 0.00000E+00
 -1        95 2.29167E-02 0.00000E+00 0.00000E+00
 -1        96 2.39583E-02 0.00000E+00 0.00000E+00
 -1        97 1.66667E-02 1.04167E-03 0.00000E+00
 -1        98 1.66667E-02 2.08333E-03 0.00000E+00
 -1        99 1.66667E-02 3.12500E-03 0.00000E+00
 -1       100 1.66667E-02 4.16667E-03 0.00000E+00
 -1       101 1.66667E-02 5.20833E-03 0.00000E+00
 -1       102 2.60417E-02 0.00000E+00 0.00000E+00
 -1       103 2.70833E-02 0.00000E+00 0.00000E+00
 -1       104 2.81250E-02 0.00000E+00 0.00000E+00
 -1       105 2.91667E-02 0.00000E+00 0.00000E+00
 -1       106 3.02083E-02 0.00000E+00 0.00000E+00
 -1       107 3.12500E-02 0.00000E+00 0.00000E+00
 -1       108 3.22917E-02 0.00000E+00 0.00000E+00
 -1       109 2.50000E-02 1.04167E-03 0.00000E+00
 -1       110 2.50000E-02 2.08333E-03 0.00000E+00
 -1       111 2.50000E-02 3.12500E-03 0.00000E+00
 -1       112 2.50000E-02 4.16667E-03 0.00000E+00
 -1       113 2.50000E-02 5.20833E-03 0.00000E+00
 -1       114 3.43750E-02 0.00000E+00 0.00000E+00
 -1       115 3.54167E-02 0.00000E+00 0.00000E+00
 -1       116 3.64583E-02 0.00000E+00 0.00000E+00
 -1       117 3.75000E-02 0.00000E+00 0.00000E+00
 -1       118 3.85417E-02 0.00000E+00 0.00000E+00
 -1       119 3.95833E-02 0.00000E+00 0.00000E+00
 -1       120 4.06250E-02 0.00000E+00 0.00000E+00
 -1       121 3.33333E-02 1.04167E-03 0.00000E+00
 -1       122 3.33333E-02 2.08333E-03 0.00000E+00
 -1       123 3.33333E-02 3.12500E-03 0.00000E+00
 -1       124 3.33333E-02 4.16667E-03 0.00000E+00
 -1       125 3.33333E-02 5.20833E-03 0.00000E+00
 -1       126 4.27083E-02 0.00000E+00 0.00000E+00
 -1       127 4.37500E-02 0.00000E+00 0.00000E+00
 -1       128 4.47917E-02 0.00000E+00 0.00000E+00
 -1       129 4.58333E-02 0.00000E+00 0.00000E+00
 -1       130 4.68750E-02 0.00000E+00 0.00000E+00
 -1       131 4.79167E-02 0.00000E+00 0.00000E+00
 -1       132 4.89583E-02 0.00000E+00 0.00000E+00
 -1       133 4.16667E-02 1.04167E-03 0.00000E+00
 -1       134 4.16667E-02 2.08333E-03 0.00000E+00
 -1       135 4.16667E-02 3.12500E-03 0.00000E+00
 -1       136 4.16667E-02 4.16667E-03 0.00000E+00
 -1       137 4.16667E-02 5.20833E-03 0.00000E+00
 -1       138 5.10417E-02 0.00000E+00 0.00000E+00
 -1       139 5.20833E-02 0.00000E+00 0.00000E+00
 -1       140 5.31250E-02 0.00000E+00 0.00000E+00
 -1       141 5.41667E-02 0.00000E+00 0.00000E+00
 -1       142 5.52083E-02 0.00000E+00 0.00000E+00
 -1       143 5.62500E-02 0.00000E+00 0.00000E+00
 -1       144 5.72917E-02 0.00000E+00 0.00000E+00
 -1       145 5.00000E-02 1.04167E-03 0.00000E+00
 -1       146 5.00000E-02 2.08333E-03 0.00000E+00
 -1       147 5.00000E-02 3.12500E-03 0.00000E+00
 -1       148 5.00000E-02 4.16667E-03 0.00000E+00
 -1       149 5.00000E-02 5.20833E-03 0.00000E+00
 -1       150 5.93750E-02 0.00000E+00 0.00000E+00
 -1       151 6.04167E-02 0.00000E+00 0.00000E+00
 -1       152 6.14583E-02 0.00000E+00 0.00000E+00
 -1       153 6.25000E-02 0.00000E+00 0.00000E+00
 -1       154 6.35417E-02 0.00000E+00 0.00000E+00
 -1       155 6.45833E-02 0.00000E+00 0.00000E+00
 -1       156 6.56250E-02 0.00000E+00 0.00000E+00
 -1       157 5.83333E-02 1.04167E-03 0.00000E+00
 -1       158 5.83333E-02 2.08333E-03 0.00000E+00
 -1       159 5.83333E-02 3.12500E-03 0.00000E+00
 -1       160 5.83333E-02 4.16667E-03 0.00000E+00
 -1       161 5.83333E-02 5.20833E-03 0.00000E+00
 -1       169 6.66667E-02 1.04167E-03 0.00000E+00
 -1       170 6.66667E-02 2.08333E-03 0.00000E+00
 -1       171 6.66667E-02 3.12500E-03 0.00000E+00
 -1       172 6.66667E-02 4.16667E-03 0.00000E+00
 -1       173 6.66667E-02 5.20833E-03 0.00000E+00
 -1       215 1.04167E-03 6.25000E-03 0.00000E+00
 -1       216 2.08333E-03 6.25000E-03 0.00000E+00
 -1       217 3.12500E-03 6.25000E-03 0.00000E+00
 -1       218 4.16667E-03 6.25000E-03 0.00000E+00
 -1       219 5.20833E-03 6.25000E-03 0.00000E+00
 -1       220 6.25000E-03 6.25000E-03 0.00000E+00
 -1       221 7.29167E-03 6.25000E-03 0.00000E+00
 -1       222 0.00000E+00 7.29167E-03 0.00000E+00
 -1       223 0.00000E+00 8.33333E-03 0.00000E+00
 -1       224 0.00000E+00 9.37500E-03 0.00000E+00
 -1       225 0.00000E+00 1.04167E-02 0.00000E+00
 -1       226 0.00000E+00 1.14583E-02 0.00000E+00
 -1       227 9.37500E-03 6.25000E-03 0.00000E+00
 -1       228 1.04167E-02 6.25000E-03 0.00000E+00
 -1       229 1.14583E-02 6.25000E-03 0.00000E+00
 -1       230 1.25000E-02 6.25000E-03 0.00000E+00
 -1       231 1.35417E-02 6.25000E-03 0.00000E+00
 -1       232 1.45833E-02 6.25000E-03 0.00000E+00
 -1       233 1.56250E-02 6.25000E-03 0.00000E+00
 -1       234 8.33333E-03 7.29167E-03 0.00000E+00
 -1       235 8.33333E-03 8.33333E-03 0.00000E+00
 -1       236 8.33333E-03 9.37500E-03 0.00000E+00
 -1       237 8.33333E-03 1.04167E-02 0.00000E+00
 -1       238 8.33333E-03 1.14583E-02 0.00000E+00
 -1       239 1.77083E-02 6.25000E-03 0.00000E+00
 -1       240 1.87500E-02 6.25000E-03 0.00000E+00
 -1       241 1.97917E-02 6.25000E-03 0.00000E+00
 -1       242 2.08333E-02 6.25000E-03 0.00000E+00
 -1       243 2.18750E-02 6.25000E-03 0.00000E+00
 -1       244 2.29167E-02 6.25000E-03 0.00000E+00
 -1       245 2.39583E-02 6.25000E-03 0.00000E+00
 -1       246 1.66667E-02 7.29167E-03 0.00000E+00
 -1       247 1.66667E-02 8.33333E-03 0.00000E+00
 -1       248 1.66667E-02 9.37500E-03 0.00000E+00
 -1       249 1.66667E-02 1.04167E-02 0.00000E+00
 -1       250 1.66667E-02 1.14583E-02 0.00000E+00
 -1       251 2.60417E-02 6.25000E-03 0.00000E+00
 -1       252 2.70833E-02 6.25000E-03 0.00000E+00
 -1       253 2.81250E-02 6.25000E-03 0.00000E+00
 -1       254 2.91667E-02 6.25000E-03 0.00000E+00
 -1       255 3.02083E-02 6.25000E-03 0.00000E+00
 -1       256 3.12500E-02 6.25000E-03 0.00000E+00
 -1       257 3.22917E-02 6.25000E-03 0.00000E+00
 -1       258 2.50000E-02 7.29167E-03 0.00000E+00
 -1       259 2.50000E-02 8.33333E-03 0.00000E+00
 -1       260 2.50000E-02 9.37500E-03 0.00000E+00
 -1       261 2.50000E-02 1.04167E-02 0.00000E+00
 -1       262 2.50000E-02 1.14583E-02 0.00000E+00
 -1       263 3.43750E-02 6.25000E-03 0.00000E+00
 -1       264 3.54167E-02 6.25000E-03 0.00000E+00
 -1       265 3.64583E-02 6.25000E-03 0.00000E+00
 -1       266 3.75000E-02 6.25000E-03 0.00000E+00
 -1       267 3.85417E-02 6.25000E-03 0.00000E+00
 -1       268 3.95833E-02 6.25000E-03 0.00000E+00
 -1       269 4.06250E-02 6.25000E-03 0.00000E+00
 -1       270 3.33333E-02 7.29167E-03 0.00000E+00
 -1       271 3.33333E-02 8.33333E-03 0.00000E+00
 -1       272 3.33333E-02 9.37500E-03 0.00000E+00
 -1       273 3.33333E-02 1.04167E-02 0.00000E+00
 -1       274 3.33333E-02 1.14583E-02 0.00000E+00
 -1       275 4.27083E-02 6.25000E-03 0.00000E+00
 -1       276 4.37500E-02 6.25000E-03 0.00000E+00
 -1       277 4.47917E-02 6.25000E-03 0.00000E+00
 -1       278 4.58333E-02 6.25000E-03 0.00000E+00
 -1       279 4.68750E-02 6.25000E-03 0.00000E+00
 -1       280 4.79167E-02 6.25000E-03 0.00000E+00
 -1       281 4.89583E-02 6.25000E-03 0.00000E+00
 -1       282 4.16667E-02 7.29167E-03 0.00000E+00
 -1       283 4.16667E-02 8.33333E-03 0.00000E+00
 -1       284 4.16667E-02 9.37500E-03 0.00000E+00
 -1       285 4.16667E-02 1.04167E-02 0.00000E+00
 -1       286 4.16667E-02 1.14583E-02 0.00000E+00
 -1       287 5.10417E-02 6.25000E-03 0.00000E+00
 -1       288 5.20833E-02 6.25000E-03 0.00000E+00
 -1       289 5.31250E-02 6.25000E-03 0.00000E+00
 -1       290 5.41667E-02 6.25000E-03 0.00000E+00
 -1       291 5.52083E-02 6.25000E-03 0.00000E+00
 -1       292 5.62500E-02 6.25000E-03 0.00000E+00
 -1       293 5.72917E-02 6.25000E-03 0.00000E+00
 -1       294 5.00000E-02 7.29167E-03 0.00000E+00
 -1       295 5.00000E-02 8.33333E-03 0.00000E+00
 -1       296 5.00000E-02 9.37500E-03 0.00000E+00
 -1       297 5.00000E-02 1.04167E-02 0.00000E+00
 -1       298 5.00000E-02 1.14583E-02 0.00000E+00
 -1       299 5.93750E-02 6.25000E-03 0.00000E+00
 -1       300 6.04167E-02 6.25000E-03 0.00000E+00
 -1       301 6.14583E-02 6.25000E-03 0.00000E+00
 -1       302 6.25000E-02 6.25000E-03 0.00000E+00
 -1       303 6.35417E-02 6.25000E-03 0.00000E+00
 -1       304 6.45833E-02 6.25000E-03 0.00000E+00
 -1       305 6.56250E-02 6.25000E-03 0.00000E+00
 -1       306 5.83333E-02 7.29167E-03 0.00000E+00
 -1       307 5.83333E-02 8.33333E-03 0.00000E+00
 -1       308 5.83333E-02 9.37500E-03 0.00000E+00
 -1       309 5.83333E-02 1.04167E-02 0.00000E+00
 -1       310 5.83333E-02 1.14583E-02 0.00000E+00
 -1       318 6.66667E-02 7.29167E-03 0.00000E+00
 -1       319 6.66667E-02 8.33333E-03 0.00000E+00
 -1       320 6.66667E-02 9.37500E-03 0.00000E+00
 -1       321 6.66667E-02 1.04167E-02 0.00000E+00
 -1       322 6.66667E-02 1.14583E-02 0.00000E+00
 -1       364 1.04167E-03 1.25000E-02 0.00000E+00
 -1       365 2.08333E-03 1.25000E-02 0.00000E+00
 -1       366 3.12500E-03 1.25000E-02 0.00000E+00
 -1       367 4.16667E-03 1.25000E-02 0.00000E+00
 -1       368 5.20833E-03 1.25000E-02 0.00000E+00
 -1       369 6.25000E-03 1.25000E-02 0.00000E+00
 -1       370 7.29167E-03 1.25000E-02 0.00000E+00
 -1       371 0.00000E+00 1.35417E-02 0.00000E+00
 -1       372 0.00000E+00 1.45833E-02 0.00000E+00
 -1       373 0.00000E+00 1.56250E-02 0.00000E+00
 -1       374 0.00000E+00 1.66667E-02 0.00000E+00
 -1       375 0.00000E+00 1.77083E-02 0.00000E+00
 -1       376 9.37500E-03 1.25000E-02 0.00000E+00
 -1       377 1.04167E-02 1.25000E-02 0.00000E+00
 -1       378 1.14583E-02 1.25000E-02 0.00000E+00
 -1       379 1.25000E-02 1.25000E-02 0.00000E+00
 -1       380 1.35417E-02 1.25000E-02 0.00000E+00
 -1       381 1.45833E-02 1.25000E-02 0.00000E+00
 -1       382 1.56250E-02 1.25000E-02 0.00000E+00
 -1       383 8.33333E-03 1.35417E-02 0.00000E+00
 -1       384 8.33333E-03 1.45833E-02 0.00000E+00
 -1       385 8.33333E-03 1.56250E-02 0.00000E+00
 -1       386 8.33333E-03 1.66667E-02 0.00000E+00
 -1       387 8.33333E-03 1.77083E-02 0.00000E+00
 -1       388 1.77083E-02 1.25000E-02 0.00000E+00
 -1       389 1.87500E-02 1.25000E-02 0.00000E+00
 -1       390 1.97917E-02 1.25000E-02 0.00000E+00
 -1       391 2.08333E-02 1.25000E-02 0.00000E+00
 -1       392 2.18750E-02 1.25000E-02 0.00000E+00
 -1       393 2.29167E-02 1.25000E-02 0.00000E+00
 -1       394 2.39583E-02 1.25000E-02 0.00000E+00
 -1       395 1.66667E-02 1.35417E-02 0.00000E+00
 -1       396 1.66667E-02 1.45833E-02 0.00000E+00
 -1       397 1.66667E-02 1.56250E-02 0.00000E+00
 -1       398 1.66667E-02 1.66667E-02 0.00000E+00
 -1       399 1.66667E-02 1.77083E-02 0.00000E+00
 -1       400 2.60417E-02 1.25000E-02 0.00000E+00
 -1       401 2.70833E-02 1.25000E-02 0.00000E+00
 -1       402 2.81250E-02 1.25000E-02 0.00000E+00
 -1       403 2.91667E-02 1.25000E-02 0.00000E+00
 -1       404 3.02083E-02 1.25000E-02 0.00000E+00
 -1       405 3.12500E-02 1.25000E-02 0.00000E+00
 -1       406 3.22917E-02 1.25000E-02 0.00000E+00
 -1       407 2.50000E-02 1.35417E-02 0.00000E+00
 -1       408 2.50000E-02 1.45833E-02 0.00000E+00
 -1       409 2.50000E-02 1.56250E-02 0.00000E+00
 -1       410 2.50000E-02 1.66667E-02 0.00000E+00
 -1       411 2.50000E-02 1.77083E-02 0.00000E+00
 -1       412 3.43750E-02 1.25000E-02 0.00000E+00
 -1       413 3.54167E-02 1.25000E-02 0.00000E+00
 -1       414 3.64583E-02 1.25000E-02 0.00000E+00
 -1       415 3.75000E-02 1.25000E-02 0.00000E+00
 -1       416 3.85417E-02 1.25000E-02 0.00000E+00
 -1       417 3.95833E-02 1.25000E-02 0.00000E+00
 -1       418 4.06250E-02 1.25000E-02 0.00000E+00
 -1       419 3.33333E-02 1.35417E-02 0.00000E+00
 -1       420 3.33333E-02 1.45833E-02 0.00000E+00
 -1       421 3.33333E-02 1.56250E-02 0.00000E+00
 -1       422 3.33333E-02 1.66667E-02 0.00000E+00
 -1       423 3.33333E-02 1.77083E-02 0.00000E+00
 -1       424 4.27083E-02 1.25000E-02 0.00000E+00
 -1       425 4.37500E-02 1.25000E-02 0.00000E+00
 -1       426 4.47917E-02 1.25000E-02 0.00000E+00
 -1       427 4.58333E-02 1.25000E-02 0.00000E+00
 -1       428 4.68750E-02 1.25000E-02 0.00000E+00
 -1       429 4.79167E-02 1.25000E-02 0.00000E+00
 -1       430 4.89583E-02 1.25000E-02 0.00000E+00
 -1       431 4.16667E-02 1.35417E-02 0.00000E+00
 -1       432 4.16667E-02 1.45833E-02 0.00000E+00
 -1       433 4.16667E-02 1.56250E-02 0.00000E+00
 -1       434 4.16667E-02 1.66667E-02 0.00000E+00
 -1       435 4.16667E-02 1.77083E-02 0.00000E+00
 -1       436 5.10417E-02 1.25000E-02 0.00000E+00
 -1       437 5.20833E-02 1.25000E-02 0.00000E+00
 -1       438 5.31250E-02 1.25000E-02 0.00000E+00
 -1       439 5.41667E-02 1.25000E-02 0.00000E+00
 -1       440 5.52083E-02 1.25000E-02 0.00000E+00
 -1       441 5.62500E-02 1.25000E-02 0.00000E+00
 -1       442 5.72917E-02 1.25000E-02 0.00000E+00
 -1       443 5.00000E-02 1.35417E-02 0.00000E+00
 -1       444 5.00000E-02 1.45833E-02 0.00000E+00
 -1       445 5.00000E-02 1.56250E-02 0.00000E+00
 -1       446 5.00000E-02 1.66667E-02 0.00000E+00
 -1       447 5.00000E-02 1.77083E-02 0.00000E+00
 -1       448 5.93750E-02 1.25000E-02 0.00000E+00
 -1       449 6.04167E-02 1.25000E-02 0.00000E+00
 -1       450 6.14583E-02 1.25000E-02 0.00000E+00
 -1       451 6.25000E-02 1.25000E-02 0.00000E+00
 -1       452 6.35417E-02 1.25000E-02 0.00000E+00
 -1       453 6.45833E-02 1.25000E-02 0.00000E+00
 -1       454 6.56250E-02 1.25000E-02 0.00000E+00
 -1       455 5.83333E-02 1.35417E-02 0.00000E+00
 -1       456 5.83333E-02 1.45833E-02 0.00000E+00
 -1       457 5.83333E-02 1.56250E-02 0.00000E+00
 -1       458 5.83333E-02 1.66667E-02 0.00000E+00
 -1       459 5.83333E-02 1.77083E-02 0.00000E+00
 -1       460 6.77083E-02 1.25000E-02 0.00000E+00
 -1       461 6.87500E-02 1.25000E-02 0.00000E+00
 -1       462 6.97917E-02 1.25000E-02 0.00000E+00
 -1       463 7.08333E-02 1.25000E-02 0.00000E+00
 -1       464 7.18750E-02 1.25000E-02 0.00000E+00
 -1       465 7.29167E-02 1.25000E-02 0.00000E+00
 -1       466 7.39583E-02 1.25000E-02 0.00000E+00
 -1       467 6.66667E-02 1.35417E-02 0.00000E+00
 -1       468 6.66667E-02 1.45833E-02 0.00000E+00
 -1       469 6.66667E-02 1.56250E-02 0.00000E+00
 -1       470 6.66667E-02 1.66667E-02 0.00000E+00
 -1       471 6.66667E-02 1.77083E-02 0.00000E+00
 -1       472 7.60417E-02 1.25000E-02 0.00000E+00
 -1       473 7.70833E-02 1.25000E-02 0.00000E+00
 -1       474 7.81250E-02 1.25000E-02 0.00000E+00
 -1       475 7.91667E-02 1.25000E-02 0.00000E+00
 -1       476 8.02083E-02 1.25000E-02 0.00000E+00
 -1       477 8.12500E-02 1.25000E-02 0.00000E+00
 -1       478 8.22917E-02 1.25000E-02 0.00000E+00
 -1       479 7.50000E-02 1.35417E-02 0.00000E+00
 -1       480 7.50000E-02 1.45833E-02 0.00000E+00
 -1       481 7.50000E-02 1.56250E-02 0.00000E+00
 -1       482 7.50000E-02 1.66667E-02 0.00000E+00
 -1       483 7.50000E-02 1.77083E-02 0.00000E+00
 -1       484 8.43750E-02 1.25000E-02 0.00000E+00
 -1       485 8.54167E-02 1.25000E-02 0.00000E+00
 -1       486 8.64583E-02 1.25000E-02 0.00000E+00
 -1       487 8.75000E-02 1.25000E-02 0.00000E+00
 -1       488 8.85417E-02 1.25000E-02 0.00000E+00
 -1       489 8.95833E-02 1.25000E-02 0.00000E+00
 -1       490 9.06250E-02 1.25000E-02 0.00000E+00
 -1       491 8.33333E-02 1.35417E-02 0.00000E+00
 -1       492 8.33333E-02 1.45833E-02 0.00000E+00
 -1       493 8.33333E-02 1.56250E-02 0.00000E+00
 -1       494 8.33333E-02 1.66667E-02 0.00000E+00
 -1       495 8.33333E-02 1.77083E-02 0.00000E+00
 -1       496 9.27083E-02 1.25000E-02 0.00000E+00
 -1       497 9.37500E-02 1.25000E-02 0.00000E+00
 -1       498 9.47917E-02 1.25000E-02 0.00000E+00
 -1       499 9.58333E-02 1.25000E-02 0.00000E+00
 -1       500 9.68750E-02 1.25000E-02 0.00000E+00
 -1       501 9.79167E-02 1.25000E-02 0.00000E+00
 -1       502 9.89583E-02 1.25000E-02 0.00000E+00
 -1       503 9.16667E-02 1.35417E-02 0.00000E+00
 -1       504 9.16667E-02 1.45833E-02 0.00000E+00
 -1       505 9.16667E-02 1.56250E-02 0.00000E+00
 -1       506 9.16667E-02 1.66667E-02 0.00000E+00
 -1       507 9.16667E-02 1.77083E-02 0.00000E+00
 -1       508 1.00000E-01 1.35417E-02 0.00000E+00
 -1       509 1.00000E-01 1.45833E-02 0.00000E+00
 -1       510 1.00000E-01 1.56250E-02 0.00000E+00
 -1       511 1.00000E-01 1.66667E-02 0.00000E+00
 -1       512 1.00000E-01 1.77083E-02 0.00000E+00
 -1       513 1.04167E-03 1.87500E-02 0.00000E+00
 -1       514 2.08333E-03 1.87500E-02 0.00000E+00
 -1       515 3.12500E-03 1.87500E-02 0.00000E+00
 -1       516 4.16667E-03 1.87500E-02 0.00000E+00
 -1       517 5.20833E-03 1.87500E-02 0.00000E+00
 -1       518 6.25000E-03 1.87500E-02 0.00000E+00
 -1       519 7.29167E-03 1.87500E-02 0.00000E+00
 -1       520 0.00000E+00 1.97917E-02 0.00000E+00
 -1       521 0.00000E+00 2.08333E-02 0.00000E+00
 -1       522 0.00000E+00 2.18750E-02 0.00000E+00
 -1       523 0.00000E+00 2.29167E-02 0.00000E+00
 -1       524 0.00000E+00 2.39583E-02 0.00000E+00
 -1       525 9.37500E-03 1.87500E-02 0.00000E+00
 -1       526 1.04167E-02 1.87500E-02 0.00000E+00
 -1       527 1.14583E-02 1.87500E-02 0.00000E+00
 -1       528 1.25000E-02 1.87500E-02 0.00000E+00
 -1       529 1.35417E-02 1.87500E-02 0.00000E+00
 -1       530 1.45833E-02 1.87500E-02 0.00000E+00
 -1       531 1.56250E-02 1.87500E-02 0.00000E+00
 -1       532 8.33333E-03 1.97917E-02 0.00000E+00
 -1       533 8.33333E-03 2.08333E-02 0.00000E+00
 -1       534 8.33333E-03 2.18750E-02 0.00000E+00
 -1       535 8.33333E-03 2.29167E-02 0.00000E+00
 -1       536 8.33333E-03 2.39583E-02 0.00000E+00
 -1       537 1.77083E-02 1.87500E-02 0.00000E+00
 -1       538 1.87500E-02 1.87500E-02 0.00000E+00
 -1       539 1.97917E-02 1.87500E-02 0.00000E+00
 -1       540 2.08333E-02 1.87500E-02 0.00000E+00
 -1       541 2.18750E-02 1.87500E-02 0.00000E+00
 -1       542 2.29167E-02 1.87500E-02 0.00000E+00
 -1       543 2.39583E-02 1.87500E-02 0.00000E+00
 -1       544 1.66667E-02 1.97917E-02 0.00000E+00
 -1       545 1.66667E-02 2.08333E-02 0.00000E+00
 -1       546 1.66667E-02 2.18750E-02 0.00000E+00
 -1       547 1.66667E-02 2.29167E-02 0.00000E+00
 -1       548 1.66667E-02 2.39583E-02 0.00000E+00
 -1       549 2.60417E-02 1.87500E-02 0.00000E+00
 -1       550 2.70833E-02 1.87500E-02 0.00000E+00
 -1       551 2.81250E-02 1.87500E-02 0.00000E+00
 -1       552 2.91667E-02 1.87500E-02 0.00000E+00
 -1       553 3.02083E-02 1.87500E-02 0.00000E+00
 -1       554 3.12500E-02 1.87500E-02 0.00000E+00
 -1       555 3.22917E-02 1.87500E-02 0.00000E+00
 -1       556 2.50000E-02 1.97917E-02 0.00000E+00
 -1       557 2.50000E-02 2.08333E-02 0.00000E+00
 -1       558 2.50000E-02 2.18750E-02 0.00000E+00
 -1       559 2.50000E-02 2.29167E-02 0.00000E+00
 -1       560 2.50000E-02 2.39583E-02 0.00000E+00
 -1       561 3.43750E-02 1.87500E-02 0.00000E+00
 -1       562 3.54167E-02 1.87500E-02 0.00000E+00
 -1       563 3.64583E-02 1.87500E-02 0.00000E+00
 -1       564 3.75000E-02 1.87500E-02 0.00000E+00
 -1       565 3.85417E-02 1.87500E-02 0.00000E+00
 -1       566 3.95833E-02 1.87500E-02 0.00000E+00
 -1       567 4.06250E-02 1.87500E-02 0.00000E+00
 -1       568 3.33333E-02 1.97917E-02 0.00000E+00
 -1       569 3.33333E-02 2.08333E-02 0.00000E+00
 -1       570 3.33333E-02 2.18750E-02 0.00000E+00
 -1       571 3.33333E-02 2.29167E-02 0.00000E+00
 -1       572 3.33333E-02 2.39583E-02 0.00000E+00
 -1       573 4.27083E-02 1.87500E-02 0.00000E+00
 -1       574 4.37500E-02 1.87500E-02 0.00000E+00
 -1       575 4.47917E-02 1.87500E-02 0.00000E+00
 -1       576 4.58333E-02 1.87500E-02 0.00000E+00
 -1       577 4.68750E-02 1.87500E-02 0.00000E+00
 -1       578 4.79167E-02 1.87500E-02 0.00000E+00
 -1       579 4.89583E-02 1.87500E-02 0.00000E+00
 -1       580 4.16667E-02 1.97917E-02 0.00000E+00
 -1       581 4.16667E-02 2.08333E-02 0.00000E+00
 -1       582 4.16667E-02 2.18750E-02 0.00000E+00
 -1       583 4.16667E-02 2.29167E-02 0.00000E+00
 -1       584 4.16667E-02 2.39583E-02 0.00000E+00
 -1       585 5.10417E-02 1.87500E-02 0.00000E+00
 -1       586 5.20833E-02 1.87500E-02 0.00000E+00
 -1       587 5.31250E-02 1.87500E-02 0.00000E+00
 -1       588 5.41667E-02 1.87500E-02 0.00000E+00
 -1       589 5.52083E-02 1.87500E-02 0.00000E+00
 -1       590 5.62500E-02 1.87500E-02 0.00000E+00
 -1       591 5.72917E-02 1.87500E-02 0.00000E+00
 -1       592 5.00000E-02 1.97917E-02 0.00000E+00
 -1       593 5.00000E-02 2.08333E-02 0.00000E+00
 -1       594 5.00000E-02 2.18750E-02 0.00000E+00
 -1       595 5.00000E-02 2.29167E-02 0.00000E+00
 -1       596 5.00000E-02 2.39583E-02 0.00000E+00
 -1       597 5.93750E-02 1.87500E-02 0.00000E+00
 -1       598 6.04167E-02 1.87500E-02 0.00000E+00
 -1       599 6.14583E-02 1.87500E-02 0.00000E+00
 -1       600 6.25000E-02 1.87500E-02 0.00000E+00
 -1       601 6.35417E-02 1.87500E-02 0.00000E+00
 -1       602 6.45833E-02 1.87500E-02 0.00000E+00
 -1       603 6.56250E-02 1.87500E-02 0.00000E+00
 -1       604 5.83333E-02 1.97917E-02 0.00000E+00
 -1       605 5.83333E-02 2.08333E-02 0.00000E+00
 -1       606 5.83333E-02 2.18750E-02 0.00000E+00
 -1       607 5.83333E-02 2.29167E-02 0.00000E+00
 -1       608 5.83333E-02 2.39583E-02 0.00000E+00
 -1       609 6.77083E-02 1.87500E-02 0.00000E+00
 -1       610 6.87500E-02 1.87500E-02 0.00000E+00
 -1       611 6.97917E-02 1.87500E-02 0.00000E+00
 -1       612 7.08333E-02 1.87500E-02 0.00000E+00
 -1       613 7.18750E-02 1.87500E-02 0.00000E+00
 -1       614 7.29167E-02 1.87500E-02 0.00000E+00
 -1       615 7.39583E-02 1.87500E-02 0.00000E+00
 -1       616 6.66667E-02 1.97917E-02 0.00000E+00
 -1       617 6.66667E-02 2.08333E-02 0.00000E+00
 -1       618 6.66667E-02 2.18750E-02 0.00000E+00
 -1       619 6.66667E-02 2.29167E-02 0.00000E+00
 -1       620 6.66667E-02 2.39583E-02 0.00000E+00
 -1       621 7.60417E-02 1.87500E-02 0.00000E+00
 -1       622 7.70833E-02 1.87500E-02 0.00000E+00
 -1       623 7.81250E-02 1.87500E-02 0.00000E+00
 -1       624 7.91667E-02 1.87500E-02 0.00000E+00
 -1       625 8.02083E-02 1.87500E-02 0.00000E+00
 -1       626 8.12500E-02 1.87500E-02 0.00000E+00
 -1       627 8.22917E-02 1.87500E-02 0.00000E+00
 -1       628 7.50000E-02 1.97917E-02 0.00000E+00
 -1       629 7.50000E-02 2.08333E-02 0.00000E+00
 -1       630 7.50000E-02 2.18750E-02 0.00000E+00
 -1       631 7.50000E-02 2.29167E-02 0.00000E+00
 -1       632 7.50000E-02 2.39583E-02 0.00000E+00
 -1       633 8.43750E-02 1.87500E-02 0.00000E+00
 -1       634 8.54167E-02 1.87500E-02 0.00000E+00
 -1       635 8.64583E-02 1.87500E-02 0.00000E+00
 -1       636 8.75000E-02 1.87500E-02 0.00000E+00
 -1       637 8.85417E-02 1.87500E-02 0.00000E+00
 -1       638 8.95833E-02 1.87500E-02 0.00000E+00
 -1       639 9.06250E-02 1.87500E-02 0.00000E+00
 -1       640 8.33333E-02 1.97917E-02 0.00000E+00
 -1       641 8.33333E-02 2.08333E-02 0.00000E+00
 -1       642 8.33333E-02 2.18750E-02 0.00000E+00
 -1       643 8.33333E-02 2.29167E-02 0.00000E+00
 -1       644 8.33333E-02 2.39583E-02 0.00000E+00
 -1       645 9.27083E-02 1.87500E-02 0.00000E+00
 -1       646 9.37500E-02 1.87500E-02 0.00000E+00
 -1       647 9.47917E-02 1.87500E-02 0.00000E+00
 -1       648 9.58333E-02 1.87500E-02 0.00000E+00
 -1       649 9.68750E-02 1.87500E-02 0.00000E+00
 -1       650 9.79167E-02 1.87500E-02 0.00000E+00
 -1       651 9.89583E-02 1.87500E-02 0.00000E+00
 -1       652 9.16667E-02 1.97917E-02 0.00000E+00
 -1       653 9.16667E-02 2.08333E-02 0.00000E+00
 -1       654 9.16667E-02 2.18750E-02 0.00000E+00
 -1       655 9.16667E-02 2.29167E-02 0.00000E+00
 -1       656 9.16667E-02 2.39583E-02 0.00000E+00
 -1       657 1.00000E-01 1.97917E-02 0.00000E+00
 -1       658 1.00000E-01 2.08333E-02 0.00000E+00
 -1       659 1.00000E-01 2.18750E-02 0.00000E+00
 -1       660 1.00000E-01 2.29167E-02 0.00000E+00
 -1       661 1.00000E-01 2.39583E-02 0.00000E+00
 -1       662 1.04167E-03 2.50000E-02 0.00000E+00
 -1       663 2.08333E-03 2.50000E-02 0.00000E+00
 -1       664 3.12500E-03 2.50000E-02 0.00000E+00
 -1       665 4.16667E-03 2.50000E-02 0.00000E+00
 -1       666 5.20833E-03 2.50000E-02 0.00000E+00
 -1       667 6.25000E-03 2.50000E-02 0.00000E+00
 -1       668 7.29167E-03 2.50000E-02 0.00000E+00
 -1       669 9.37500E-03 2.50000E-02 0.00000E+00
 -1       670 1.04167E-02 2.50000E-02 0.00000E+00
 -1       671 1.14583E-02 2.50000E-02 0.00000E+00
 -1       672 1.25000E-02 2.50000E-02 0.00000E+00
 -1       673 1.35417E-02 2.50000E-02 0.00000E+00
 -1       674 1.45833E-02 2.50000E-02 0.00000E+00
 -1       675 1.56250E-02 2.50000E-02 0.00000E+00
 -1       676 1.77083E-02 2.50000E-02 0.00000E+00
 -1       677 1.87500E-02 2.50000E-02 0.00000E+00
 -1       678 1.97917E-02 2.50000E-02 0.00000E+00
 -1       679 2.08333E-02 2.50000E-02 0.00000E+00
 -1       680 2.18750E-02 2.50000E-02 0.00000E+00
 -1       681 2.29167E-02 2.50000E-02 0.00000E+00
 -1       682 2.39583E-02 2.50000E-02 0.00000E+00
 -1       683 2.60417E-02 2.50000E-02 0.00000E+00
 -1       684 2.70833E-02 2.50000E-02 0.00000E+00
 -1       685 2.81250E-02 2.50000E-02 0.00000E+00
 -1       686 2.91667E-02 2.50000E-02 0.00000E+00
 -1       687 3.02083E-02 2.50000E-02 0.00000E+00