
 stresses (elem, integ.pnt.,sxx,syy,szz,sxy,sxz,syz) for set ELALL and time  0.1000000E+01

         1   1 -2.570669E+06 -1.581786E+05 -1.945112E+05 -6.467683E+04 -1.331302E+05  1.392409E+01
         1   2 -2.546084E+06  1.096860E+04 -8.689987E+04 -2.070620E+04 -8.671689E+04  2.903604E+00
         1   3 -2.570466E+06  8.680963E+03 -5.245060E+04  2.326715E+04 -4.030337E+04 -1.516474E+00
         1   4 -2.570674E+06 -1.581865E+05 -1.945123E+05 -5.814163E-10 -1.331302E+05 -5.268855E-10
         1   5 -2.546085E+06  1.096779E+04 -8.689999E+04 -1.862514E-08 -8.671689E+04 -9.929754E-10
         1   6 -2.570466E+06  8.679942E+03 -5.245075E+04  4.226004E-09 -4.030337E+04  5.464990E-10
         1   7 -2.570669E+06 -1.581786E+05 -1.945112E+05  6.467683E+04 -1.331302E+05 -1.392409E+01
         1   8 -2.546084E+06  1.096860E+04 -8.689987E+04  2.070620E+04 -8.671689E+04 -2.903604E+00
         1   9 -2.570466E+06  8.680963E+03 -5.245060E+04 -2.326715E+04 -4.030337E+04  1.516474E+00
         1  10 -2.570688E+06 -1.581834E+05 -1.945446E+05 -6.467682E+04  1.041281E-09 -3.209422E-10
         1  11 -2.546092E+06  1.096657E+04 -8.691406E+04 -2.070620E+04 -1.936702E-09 -6.933372E-10
         1  12 -2.570468E+06  8.680525E+03 -5.245366E+04  2.326715E+04 -1.639407E-09 -9.121926E-11
         1  13 -2.570693E+06 -1.581913E+05 -1.945458E+05 -1.374933E-08 -2.151515E-09 -5.057930E-10
         1  14 -2.546093E+06  1.096576E+04 -8.691418E+04 -1.210884E-08  3.179481E-09 -9.755800E-10
         1  15 -2.570468E+06  8.679503E+03 -5.245381E+04 -2.948338E-09  5.461358E-10  4.950109E-10
         1  16 -2.570688E+06 -1.581834E+05 -1.945446E+05  6.467682E+04  7.500692E-11 -6.541166E-10
         1  17 -2.546092E+06  1.096657E+04 -8.691406E+04  2.070620E+04  2.470307E-09 -1.190016E-09
         1  18 -2.570468E+06  8.680525E+03 -5.245366E+04 -2.326715E+04  3.238383E-09  7.832362E-10
         1  19 -2.570669E+06 -1.581786E+05 -1.945112E+05 -6.467683E+04  1.331302E+05 -1.392409E+01
         1  20 -2.546084E+06  1.096860E+04 -8.689987E+04 -2.070620E+04  8.671689E+04 -2.903604E+00
         1  21 -2.570466E+06  8.680963E+03 -5.245060E+04  2.326715E+04  4.030337E+04  1.516474E+00
         1  22 -2.570674E+06 -1.581865E+05 -1.945123E+05 -1.018149E-09  1.331302E+05 -5.140385E-10
         1  23 -2.546085E+06  1.096779E+04 -8.689999E+04 -9.896209E-09  8.671689E+04 -1.079688E-09
         1  24 -2.570466E+06  8.679942E+03 -5.245075E+04  3.019793E-08  4.030337E+04  4.980613E-10
         1  25 -2.570669E+06 -1.581786E+05 -1.945112E+05  6.467683E+04  1.331302E+05  1.392409E+01
         1  26 -2.546084E+06  1.096860E+04 -8.689987E+04  2.070620E+04  8.671689E+04  2.903604E+00
         1  27 -2.570466E+06  8.680963E+03 -5.245060E+04 -2.326715E+04  4.030337E+04 -1.516474E+00
         2   1 -2.560683E+06 -1.184822E+04 -4.223060E+04 -4.008611E+03 -3.257220E+04  2.111468E-01
         2   2 -2.558288E+06  9.856341E+02 -2.230396E+04 -9.997670E+02 -2.129642E+04  3.443091E-02
         2   3 -2.560655E+06  6.774349E+02 -1.302595E+04  2.009062E+03 -1.002051E+04 -3.255578E-02
         2   4 -2.560683E+06 -1.184825E+04 -4.223060E+04  7.128897E-09 -3.257220E+04  1.476957E-09
         2   5 -2.558288E+06  9.856322E+02 -2.230396E+04 -1.400389E-09 -2.129642E+04  8.632781E-10
         2   6 -2.560655E+06  6.774272E+02 -1.302595E+04 -1.045917E-08 -1.002051E+04 -1.438376E-09
         2   7 -2.560683E+06 -1.184822E+04 -4.223060E+04  4.008611E+03 -3.257220E+04 -2.111468E-01
         2   8 -2.558288E+06  9.856341E+02 -2.230396E+04  9.997670E+02 -2.129642E+04 -3.443091E-02
         2   9 -2.560655E+06  6.774349E+02 -1.302595E+04 -2.009062E+03 -1.002051E+04  3.255577E-02
         2  10 -2.560685E+06 -1.184851E+04 -4.223260E+04 -4.008611E+03  1.732341E-09  6.379505E-10
         2  11 -2.558288E+06  9.855117E+02 -2.230481E+04 -9.997670E+02 -7.731772E-10  5.104619E-10
         2  12 -2.560655E+06  6.774078E+02 -1.302614E+04  2.009062E+03 -3.385634E-10 -6.329980E-10
         2  13 -2.560685E+06 -1.184854E+04 -4.223260E+04  2.720497E-09 -9.509376E-10  1.017545E-09
         2  14 -2.558288E+06  9.855098E+02 -2.230481E+04 -1.008083E-08  1.220150E-09  2.153410E-10
         2  15 -2.560655E+06  6.774001E+02 -1.302614E+04 -4.554505E-09  1.156355E-09 -2.877003E-10
         2  16 -2.560685E+06 -1.184851E+04 -4.223260E+04  4.008611E+03 -1.177631E-09  1.377757E-09
         2  17 -2.558288E+06  9.855117E+02 -2.230481E+04  9.997670E+02 -3.873305E-09 -3.474340E-11
         2  18 -2.560655E+06  6.774078E+02 -1.302614E+04 -2.009062E+03 -3.074644E-10 -5.735174E-11
         2  19 -2.560683E+06 -1.184822E+04 -4.223060E+04 -4.008611E+03  3.257220E+04 -2.111468E-01
         2  20 -2.558288E+06  9.856341E+02 -2.230396E+04 -9.997670E+02  2.129642E+04 -3.443091E-02
         2  21 -2.560655E+06  6.774349E+02 -1.302595E+04  2.009062E+03  1.002051E+04  3.255578E-02
         2  22 -2.560683E+06 -1.184825E+04 -4.223060E+04  6.965215E-09  3.257220E+04  5.192386E-10
         2  23 -2.558288E+06  9.856322E+02 -2.230396E+04 -3.711663E-09  2.129642E+04 -3.727114E-10
         2  24 -2.560655E+06  6.774272E+02 -1.302595E+04  6.595181E-09  1.002051E+04  9.101559E-10
         2  25 -2.560683E+06 -1.184822E+04 -4.223060E+04  4.008611E+03  3.257220E+04  2.111468E-01
         2  26 -2.558288E+06  9.856341E+02 -2.230396E+04  9.997670E+02  2.129642E+04  3.443091E-02
         2  27 -2.560655E+06  6.774349E+02 -1.302595E+04 -2.009062E+03  1.002051E+04 -3.255578E-02
         3   1 -2.559738E+06 -8.395126E+02 -1.008338E+04 -7.378693E+01 -7.991971E+03  9.536229E-04
         3   2 -2.559423E+06  1.126596E+02 -5.710132E+03  6.460010E+01 -5.153744E+03 -5.383949E-04
         3   3 -2.559732E+06  5.643912E+01 -3.442431E+03  2.029847E+02 -2.315548E+03 -7.600830E-04
         3   4 -2.559738E+06 -8.395126E+02 -1.008338E+04 -2.122451E-09 -7.991971E+03 -2.319723E-09
         3   5 -2.559423E+06  1.126596E+02 -5.710132E+03  4.337053E-09 -5.153744E+03 -1.474884E-09
         3   6 -2.559732E+06  5.643904E+01 -3.442431E+03  5.383639E-09 -2.315548E+03  5.624734E-10
         3   7 -2.559738E+06 -8.395126E+02 -1.008338E+04  7.378693E+01 -7.991971E+03 -9.536274E-04
         3   8 -2.559423E+06  1.126596E+02 -5.710132E+03 -6.460010E+01 -5.153744E+03  5.383915E-04
         3   9 -2.559732E+06  5.643912E+01 -3.442431E+03 -2.029847E+02 -2.315548E+03  7.600836E-04
         3  10 -2.559738E+06 -8.395299E+02 -1.008350E+04 -7.378693E+01 -6.178331E-10 -9.901727E-10
         3  11 -2.559423E+06  1.126525E+02 -5.710182E+03  6.460010E+01 -1.183438E-09 -6.544652E-10
         3  12 -2.559732E+06  5.643767E+01 -3.442441E+03  2.029847E+02 -2.394797E-09  9.958759E-10
         3  13 -2.559738E+06 -8.395299E+02 -1.008350E+04 -6.616951E-09 -2.026716E-09 -8.613436E-10
         3  14 -2.559423E+06  1.126524E+02 -5.710182E+03  1.259478E-10 -1.075858E-09 -1.058772E-09
         3  15 -2.559732E+06  5.643760E+01 -3.442441E+03  1.455928E-09  6.388262E-10  8.118998E-10
         3  16 -2.559738E+06 -8.395299E+02 -1.008350E+04  7.378693E+01 -2.410124E-09 -9.566399E-10
         3  17 -2.559423E+06  1.126525E+02 -5.710182E+03 -6.460010E+01  1.718957E-12 -1.490603E-09
         3  18 -2.559732E+06  5.643767E+01 -3.442441E+03 -2.029847E+02  9.321394E-10  8.706846E-10
         3  19 -2.559738E+06 -8.395126E+02 -1.008338E+04 -7.378693E+01  7.991971E+03 -9.536248E-04
         3  20 -2.559423E+06  1.126596E+02 -5.710132E+03  6.460010E+01  5.153744E+03  5.383944E-04
         3  21 -2.559732E+06  5.643912E+01 -3.442431E+03  2.029847E+02  2.315548E+03  7.600853E-04
         3  22 -2.559738E+06 -8.395126E+02 -1.008338E+04  6.201084E-09  7.991971E+03  5.775655E-10
         3  23 -2.559423E+06  1.126596E+02 -5.710132E+03  4.544858E-09  5.153744E+03 -7.196390E-10
         3  24 -2.559732E+06  5.643904E+01 -3.442431E+03 -2.486476E-09  2.315548E+03  1.009176E-09
         3  25 -2.559738E+06 -8.395126E+02 -1.008338E+04  7.378693E+01  7.991971E+03  9.536257E-04
         3  26 -2.559423E+06  1.126596E+02 -5.710132E+03 -6.460010E+01  5.153744E+03 -5.383956E-04
         3  27 -2.559732E+06  5.643912E+01 -3.442431E+03 -2.029847E+02  2.315548E+03 -7.600831E-04
         4   1 -2.559626E+06 -4.652573E+01 -2.748551E+03  4.407925E+01 -1.759731E+03 -1.254360E-04
         4   2 -2.559553E+06  2.284668E+01 -1.913448E+03  2.299987E+01 -8.138370E+02 -3.027010E-05
         4   3 -2.559625E+06  5.804663E+00 -1.717679E+03  1.920197E+00  1.320719E+02  4.114337E-07
         4   4 -2.559626E+06 -4.652574E+01 -2.748551E+03  6.795362E-09 -1.759731E+03  7.210140E-10
         4   5 -2.559553E+06  2.284667E+01 -1.913448E+03  7.641188E-09 -8.138370E+02 -1.091694E-10
         4   6 -2.559625E+06  5.804663E+00 -1.717679E+03  4.429435E-09  1.320719E+02  1.201225E-09
         4   7 -2.559626E+06 -4.652573E+01 -2.748551E+03 -4.407925E+01 -1.759731E+03  1.254376E-04
         4   8 -2.559553E+06  2.284668E+01 -1.913448E+03 -2.299987E+01 -8.138370E+02  3.026941E-05
         4   9 -2.559625E+06  5.804663E+00 -1.717679E+03 -1.920197E+00  1.320719E+02 -4.089957E-07
         4  10 -2.559626E+06 -4.652657E+01 -2.748557E+03  4.407925E+01  2.556020E-09  5.338895E-10
         4  11 -2.559553E+06  2.284650E+01 -1.913449E+03  2.299987E+01  1.366423E-09 -1.080762E-09
         4  12 -2.559625E+06  5.804659E+00 -1.717679E+03  1.920197E+00 -1.506172E-09  5.579170E-11
         4  13 -2.559626E+06 -4.652657E+01 -2.748557E+03 -1.078161E-08 -1.191540E-09  8.073889E-10
         4  14 -2.559553E+06  2.284650E+01 -1.913449E+03  9.774022E-09  1.156804E-10 -6.966614E-10
         4  15 -2.559625E+06  5.804659E+00 -1.717679E+03 -8.619959E-10  2.920829E-09  2.486327E-10
         4  16 -2.559626E+06 -4.652657E+01 -2.748557E+03 -4.407925E+01 -1.579047E-09  1.213974E-09
         4  17 -2.559553E+06  2.284650E+01 -1.913449E+03 -2.299987E+01 -3.269415E-09 -4.367831E-11
         4  18 -2.559625E+06  5.804659E+00 -1.717679E+03 -1.920197E+00  5.184716E-09  5.168897E-10
         4  19 -2.559626E+06 -4.652573E+01 -2.748551E+03  4.407925E+01  1.759731E+03  1.254370E-04
         4  20 -2.559553E+06  2.284668E+01 -1.913448E+03  2.299987E+01  8.138370E+02  3.026829E-05
         4  21 -2.559625E+06  5.804663E+00 -1.717679E+03  1.920197E+00 -1.320719E+02 -4.113081E-07
         4  22 -2.559626E+06 -4.652574E+01 -2.748551E+03  3.936231E-09  1.759731E+03  8.819898E-10
         4  23 -2.559553E+06  2.284667E+01 -1.913448E+03  7.578213E-09  8.138370E+02 -1.408979E-09
         4  24 -2.559625E+06  5.804663E+00 -1.717679E+03  1.364299E-08 -1.320719E+02 -7.522032E-10
         4  25 -2.559626E+06 -4.652573E+01 -2.748551E+03 -4.407925E+01  1.759731E+03 -1.254354E-04
         4  26 -2.559553E+06  2.284668E+01 -1.913448E+03 -2.299987E+01  8.138370E+02 -3.027096E-05
         4  27 -2.559625E+06  5.804663E+00 -1.717679E+03 -1.920197E+00 -1.320719E+02  4.095615E-07
         5   1 -2.559635E+06  8.072182E+00 -1.818487E+03 -2.738757E+01  4.514207E+02 -1.999095E-05
         5   2 -2.559541E+06  3.011461E+01 -2.459248E+03 -5.107800E+01  1.667404E+03 -1.377263E-04
         5   3 -2.559637E+06 -7.159132E+01 -3.925053E+03 -7.476846E+01  2.883385E+03 -3.486311E-04
         5   4 -2.559635E+06  8.072180E+00 -1.818487E+03 -1.526308E-09  4.514207E+02  1.752020E-09
         5   5 -2.559541E+06  3.011461E+01 -2.459248E+03 -8.096820E-09  1.667404E+03  8.629540E-10
         5   6 -2.559637E+06 -7.159133E+01 -3.925053E+03 -1.437109E-08  2.883385E+03 -6.327981E-10
         5   7 -2.559635E+06  8.072182E+00 -1.818487E+03  2.738757E+01  4.514207E+02  1.999444E-05
         5   8 -2.559541E+06  3.011461E+01 -2.459248E+03  5.107800E+01  1.667404E+03  1.377272E-04
         5   9 -2.559637E+06 -7.159132E+01 -3.925053E+03  7.476846E+01  2.883385E+03  3.486302E-04
         5  10 -2.559635E+06  8.072127E+00 -1.818487E+03 -2.738757E+01  4.849938E-10  9.568480E-10
         5  11 -2.559541E+06  3.011386E+01 -2.459253E+03 -5.107800E+01  1.123959E-09  5.145989E-10
         5  12 -2.559637E+06 -7.159356E+01 -3.925068E+03 -7.476846E+01  8.293927E-10 -9.734186E-10
         5  13 -2.559635E+06  8.072125E+00 -1.818487E+03  2.636503E-09  2.349486E-09  7.997331E-10
         5  14 -2.559541E+06  3.011386E+01 -2.459253E+03 -1.677720E-08 -9.601856E-10  2.705578E-10
         5  15 -2.559637E+06 -7.159357E+01 -3.925068E+03 -9.294317E-09  2.842007E-10 -9.319860E-11
         5  16 -2.559635E+06  8.072127E+00 -1.818487E+03  2.738757E+01  1.171718E-09  6.361037E-10
         5  17 -2.559541E+06  3.011386E+01 -2.459253E+03  5.107800E+01 -5.739033E-10  2.238212E-10
         5  18 -2.559637E+06 -7.159356E+01 -3.925068E+03  7.476846E+01  1.154465E-09  8.643686E-10
         5  19 -2.559635E+06  8.072182E+00 -1.818487E+03 -2.738757E+01 -4.514207E+02  1.999296E-05
         5  20 -2.559541E+06  3.011461E+01 -2.459248E+03 -5.107800E+01 -1.667404E+03  1.377271E-04
         5  21 -2.559637E+06 -7.159132E+01 -3.925053E+03 -7.476846E+01 -2.883385E+03  3.486300E-04
         5  22 -2.559635E+06  8.072180E+00 -1.818487E+03  1.118254E-08 -4.514207E+02 -1.261598E-10
         5  23 -2.559541E+06  3.011461E+01 -2.459248E+03 -8.237463E-09 -1.667404E+03 -3.009169E-10
         5  24 -2.559637E+06 -7.159133E+01 -3.925053E+03 -7.239150E-09 -2.883385E+03  3.605456E-10
         5  25 -2.559635E+06  8.072182E+00 -1.818487E+03  2.738757E+01 -4.514207E+02 -1.999361E-05
         5  26 -2.559541E+06  3.011461E+01 -2.459248E+03  5.107800E+01 -1.667404E+03 -1.377279E-04
         5  27 -2.559637E+06 -7.159132E+01 -3.925053E+03  7.476846E+01 -2.883385E+03 -3.486297E-04
         6   1 -2.559804E+06  8.451565E+01 -5.045134E+03 -3.157591E+02  3.688322E+03 -1.883343E-03
         6   2 -2.559337E+06  1.705037E+02 -8.583386E+03 -1.025537E+02  7.955165E+03 -1.319303E-03
         6   3 -2.559812E+06 -1.278671E+03 -1.529184E+04  1.106493E+02  1.222192E+04  2.186916E-03
         6   4 -2.559804E+06  8.451546E+01 -5.045134E+03 -7.396332E-09  3.688322E+03 -6.702940E-10
         6   5 -2.559337E+06  1.705037E+02 -8.583386E+03 -4.912580E-09  7.955165E+03  4.274178E-11
         6   6 -2.559812E+06 -1.278671E+03 -1.529184E+04  7.541844E-09  1.222192E+04 -5.322769E-10
         6   7 -2.559804E+06  8.451565E+01 -5.045134E+03  3.157591E+02  3.688322E+03  1.883342E-03
         6   8 -2.559337E+06  1.705037E+02 -8.583386E+03  1.025537E+02  7.955165E+03  1.319303E-03
         6   9 -2.559812E+06 -1.278671E+03 -1.529184E+04 -1.106493E+02  1.222192E+04 -2.186917E-03
         6  10 -2.559804E+06  8.451198E+01 -5.045160E+03 -3.157591E+02 -1.152056E-09 -9.446286E-10
         6  11 -2.559337E+06  1.704867E+02 -8.583505E+03 -1.025537E+02 -8.159176E-10  3.006599E-12
         6  12 -2.559812E+06 -1.278711E+03 -1.529212E+04  1.106493E+02 -1.934660E-09 -3.281829E-10
         6  13 -2.559804E+06  8.451179E+01 -5.045160E+03 -5.240403E-09  7.438762E-10 -1.178383E-10
         6  14 -2.559337E+06  1.704866E+02 -8.583505E+03 -1.136988E-08 -8.027352E-10 -6.324296E-11
         6  15 -2.559812E+06 -1.278711E+03 -1.529212E+04  4.017989E-09 -1.735521E-10 -2.744826E-10
         6  16 -2.559804E+06  8.451198E+01 -5.045160E+03  3.157591E+02 -5.827683E-12  5.373190E-10
         6  17 -2.559337E+06  1.704867E+02 -8.583505E+03  1.025537E+02  5.846959E-10 -1.314037E-10
         6  18 -2.559812E+06 -1.278711E+03 -1.529212E+04 -1.106493E+02 -4.837786E-11 -2.211172E-10
         6  19 -2.559804E+06  8.451565E+01 -5.045134E+03 -3.157591E+02 -3.688322E+03  1.883342E-03
         6  20 -2.559337E+06  1.705037E+02 -8.583386E+03 -1.025537E+02 -7.955165E+03  1.319304E-03
         6  21 -2.559812E+06 -1.278671E+03 -1.529184E+04  1.106493E+02 -1.222192E+04 -2.186916E-03
         6  22 -2.559804E+06  8.451546E+01 -5.045134E+03  3.435786E-09 -3.688322E+03  3.411167E-10
         6  23 -2.559337E+06  1.705037E+02 -8.583386E+03  3.681759E-09 -7.955165E+03 -1.441546E-10
         6  24 -2.559812E+06 -1.278671E+03 -1.529184E+04  1.173617E-08 -1.222192E+04 -7.694014E-11
         6  25 -2.559804E+06  8.451565E+01 -5.045134E+03  3.157591E+02 -3.688322E+03 -1.883341E-03
         6  26 -2.559337E+06  1.705037E+02 -8.583386E+03  1.025537E+02 -7.955165E+03 -1.319304E-03
         6  27 -2.559812E+06 -1.278671E+03 -1.529184E+04 -1.106493E+02 -1.222192E+04  2.186916E-03
         7   1 -2.561211E+06  1.031302E+03 -1.978898E+04 -3.061439E+03  1.530120E+04 -7.575234E-02
         7   2 -2.557606E+06  1.500822E+03 -3.393950E+04  1.521628E+03  3.246010E+04  7.987311E-02
         7   3 -2.561253E+06 -1.804472E+04 -6.429771E+04  6.104800E+03  4.961893E+04  4.898487E-01
         7   4 -2.561211E+06  1.031285E+03 -1.978898E+04  5.034111E-09  1.530120E+04  3.505434E-11
         7   5 -2.557606E+06  1.500818E+03 -3.393950E+04 -2.531796E-09  3.246010E+04  1.217437E-09
         7   6 -2.561253E+06 -1.804479E+04 -6.429772E+04  1.757852E-09  4.961893E+04 -8.680444E-10
         7   7 -2.561211E+06  1.031302E+03 -1.978898E+04  3.061439E+03  1.530120E+04  7.575234E-02
         7   8 -2.557606E+06  1.500822E+03 -3.393950E+04 -1.521628E+03  3.246010E+04 -7.987310E-02
         7   9 -2.561253E+06 -1.804472E+04 -6.429771E+04 -6.104800E+03  4.961893E+04 -4.898487E-01
         7  10 -2.561211E+06  1.031239E+03 -1.978942E+04 -3.061439E+03 -6.261350E-10 -5.927639E-11
         7  11 -2.557607E+06  1.500538E+03 -3.394149E+04  1.521628E+03  5.496182E-10  3.321805E-10
         7  12 -2.561256E+06 -1.804538E+04 -6.430236E+04  6.104800E+03  7.484187E-10 -1.421448E-09
         7  13 -2.561211E+06  1.031221E+03 -1.978942E+04 -1.351846E-09  1.373641E-09 -9.475749E-11
         7  14 -2.557607E+06  1.500533E+03 -3.394149E+04  6.041621E-09 -6.532291E-10  2.138532E-10
         7  15 -2.561256E+06 -1.804545E+04 -6.430237E+04  5.497654E-10 -1.570473E-09 -5.308754E-10
         7  16 -2.561211E+06  1.031239E+03 -1.978942E+04  3.061439E+03  2.104203E-11  1.713861E-10
         7  17 -2.557607E+06  1.500538E+03 -3.394149E+04 -1.521628E+03  1.352414E-09 -2.060994E-10
         7  18 -2.561256E+06 -1.804538E+04 -6.430236E+04 -6.104800E+03  6.636522E-10  3.030934E-10
         7  19 -2.561211E+06  1.031302E+03 -1.978898E+04 -3.061439E+03 -1.530120E+04  7.575234E-02
         7  20 -2.557606E+06  1.500822E+03 -3.393950E+04  1.521628E+03 -3.246010E+04 -7.987310E-02
         7  21 -2.561253E+06 -1.804472E+04 -6.429771E+04  6.104800E+03 -4.961893E+04 -4.898487E-01
         7  22 -2.561211E+06  1.031285E+03 -1.978898E+04  9.321450E-10 -1.530120E+04 -2.223572E-10
         7  23 -2.557606E+06  1.500818E+03 -3.393950E+04  1.708738E-09 -3.246010E+04 -8.907190E-10
         7  24 -2.561253E+06 -1.804479E+04 -6.429772E+04 -7.234231E-10 -4.961893E+04 -1.696047E-10
         7  25 -2.561211E+06  1.031302E+03 -1.978898E+04  3.061439E+03 -1.530120E+04 -7.575234E-02
         7  26 -2.557606E+06  1.500822E+03 -3.393950E+04 -1.521628E+03 -3.246010E+04  7.987310E-02
         7  27 -2.561253E+06 -1.804472E+04 -6.429771E+04 -6.104800E+03 -4.961893E+04  4.898487E-01
         8   1 -2.576150E+06  1.322169E+04 -7.986466E+04 -3.543535E+04  6.138962E+04 -3.517915E+00
         8   2 -2.539018E+06  1.670527E+04 -1.323257E+05  3.153538E+04  1.320743E+05  6.735091E+00
         8   3 -2.576454E+06 -2.408917E+05 -2.962003E+05  9.850129E+04  2.027600E+05  3.229714E+01
         8   4 -2.576152E+06  1.321933E+04 -7.986500E+04  1.109092E-08  6.138962E+04 -1.236243E-09
         8   5 -2.539019E+06  1.670339E+04 -1.323259E+05  8.528317E-09  1.320743E+05  6.593946E-10
         8   6 -2.576464E+06 -2.409100E+05 -2.962029E+05  1.680966E-09  2.027600E+05  3.683833E-10
         8   7 -2.576150E+06  1.322169E+04 -7.986466E+04  3.543535E+04  6.138962E+04  3.517915E+00
         8   8 -2.539018E+06  1.670527E+04 -1.323257E+05 -3.153538E+04  1.320743E+05 -6.735091E+00
         8   9 -2.576454E+06 -2.408917E+05 -2.962003E+05 -9.850129E+04  2.027600E+05 -3.229714E+01
         8  10 -2.576154E+06  1.322068E+04 -7.987178E+04 -3.543535E+04 -2.730501E-10 -1.487705E-09
         8  11 -2.539037E+06  1.670056E+04 -1.323586E+05  3.153538E+04  4.645705E-10  7.084164E-10
         8  12 -2.576498E+06 -2.409028E+05 -2.962779E+05  9.850129E+04  7.976415E-10  4.853921E-10
         8  13 -2.576156E+06  1.321831E+04 -7.987211E+04  1.334354E-08 -1.142949E-09 -6.023223E-10
         8  14 -2.539038E+06  1.669869E+04 -1.323589E+05  4.270658E-09  1.189458E-09  6.862674E-11
         8  15 -2.576508E+06 -2.409211E+05 -2.962805E+05 -2.200293E-08  2.067914E-10  1.181584E-10
         8  16 -2.576154E+06  1.322068E+04 -7.987178E+04  3.543535E+04 -4.922089E-10  4.248148E-10
         8  17 -2.539037E+06  1.670056E+04 -1.323586E+05 -3.153538E+04 -3.226101E-09 -5.245073E-10
         8  18 -2.576498E+06 -2.409028E+05 -2.962779E+05 -9.850129E+04 -2.241303E-09 -2.268763E-10
         8  19 -2.576150E+06  1.322169E+04 -7.986466E+04 -3.543535E+04 -6.138962E+04  3.517915E+00
         8  20 -2.539018E+06  1.670527E+04 -1.323257E+05  3.153538E+04 -1.320743E+05 -6.735091E+00
         8  21 -2.576454E+06 -2.408917E+05 -2.962003E+05  9.850129E+04 -2.027600E+05 -3.229714E+01
         8  22 -2.576152E+06  1.321933E+04 -7.986500E+04  2.750363E-09 -6.138962E+04 -2.320368E-12
         8  23 -2.539019E+06  1.670339E+04 -1.323259E+05 -1.718938E-08 -1.320743E+05 -4.636764E-10
         8  24 -2.576464E+06 -2.409100E+05 -2.962029E+05 -6.433571E-09 -2.027600E+05 -9.527186E-11
         8  25 -2.576150E+06  1.322169E+04 -7.986466E+04  3.543535E+04 -6.138962E+04 -3.517915E+00
         8  26 -2.539018E+06  1.670527E+04 -1.323257E+05 -3.153538E+04 -1.320743E+05  6.735091E+00
         8  27 -2.576454E+06 -2.408917E+05 -2.962003E+05 -9.850129E+04 -2.027600E+05  3.229714E+01
         9   1  1.939223E+06  6.487904E+06  1.882276E+06 -1.172872E+06  8.860078E+04  6.384156E+05
         9   2  1.472032E+06  5.409963E+06  1.285018E+06 -9.925764E+05  2.881991E+05  2.932644E+05
         9   3  1.179954E+06  4.424243E+06  9.554584E+05 -1.034749E+06  3.176528E+05 -5.121010E+04
         9   4  2.045962E+05 -5.529965E+05  2.264088E+05 -1.032750E+06  8.978194E+04  1.568871E+05
         9   5  4.378368E+04 -5.720382E+05  1.100644E+05 -9.218303E+05  2.890352E+05  1.008712E+05
         9   6  9.087078E+03 -5.491054E+05  6.232198E+04 -1.033341E+06  3.174691E+05  4.489050E+04
         9   7 -1.533369E+06 -7.548027E+06 -1.431995E+06 -8.941565E+05  9.075783E+04 -3.192623E+05
         9   8 -1.386589E+06 -6.519847E+06 -1.066487E+06 -8.517281E+05  2.898334E+05 -8.972308E+04
         9   9 -1.163150E+06 -5.498430E+06 -8.317371E+05 -1.031902E+06  3.172847E+05  1.402459E+05
         9  10  1.939106E+06  6.487468E+06  1.881503E+06 -1.172917E+06 -3.914218E-10  6.008225E-10
         9  11  1.471920E+06  5.409849E+06  1.284701E+06 -9.926443E+05 -3.354068E-10 -2.059823E-10
         9  12  1.179845E+06  4.424213E+06  9.552641E+05 -1.034736E+06 -2.033218E-09 -5.267975E-10
         9  13  2.045809E+05 -5.530251E+05  2.263473E+05 -1.032761E+06  1.224768E-09 -1.778357E-11
         9  14  4.369120E+04 -5.720716E+05  1.098882E+05 -9.218538E+05 -4.017169E-09 -1.675188E-11
         9  15  8.978307E+03 -5.491346E+05  6.212874E+04 -1.033352E+06  2.551715E-09 -1.277578E-11
         9  16 -1.533406E+06 -7.548140E+06 -1.432204E+06 -8.941331E+05  6.774115E-10 -7.473490E-10
         9  17 -1.386681E+06 -6.519878E+06 -1.066660E+06 -8.517071E+05  2.179967E-09  1.049757E-10
         9  18 -1.163264E+06 -5.498478E+06 -8.319638E+05 -1.031938E+06  1.541056E-09  4.571569E-10
         9  19  1.939223E+06  6.487904E+06  1.882276E+06 -1.172872E+06 -8.860078E+04 -6.384156E+05
         9  20  1.472032E+06  5.409963E+06  1.285018E+06 -9.925764E+05 -2.881991E+05 -2.932644E+05
         9  21  1.179954E+06  4.424243E+06  9.554584E+05 -1.034749E+06 -3.176528E+05  5.121010E+04
         9  22  2.045962E+05 -5.529965E+05  2.264088E+05 -1.032750E+06 -8.978194E+04 -1.568871E+05
         9  23  4.378368E+04 -5.720382E+05  1.100644E+05 -9.218303E+05 -2.890352E+05 -1.008712E+05
         9  24  9.087078E+03 -5.491054E+05  6.232198E+04 -1.033341E+06 -3.174691E+05 -4.489050E+04
         9  25 -1.533369E+06 -7.548027E+06 -1.431995E+06 -8.941565E+05 -9.075783E+04  3.192623E+05
         9  26 -1.386589E+06 -6.519847E+06 -1.066487E+06 -8.517281E+05 -2.898334E+05  8.972308E+04
         9  27 -1.163150E+06 -5.498430E+06 -8.317371E+05 -1.031902E+06 -3.172847E+05 -1.402459E+05
        10   1  1.023192E+06  3.734646E+06  8.117048E+05 -1.052936E+06  2.811022E+05 -4.040331E+04
        10   2  7.708315E+05  2.699522E+06  5.922680E+05 -9.310140E+05  2.289569E+05 -7.777012E+04
        10   3  5.318639E+05  1.672859E+06  4.001695E+05 -1.042594E+06  1.633704E+05 -1.152719E+05
        10   4  1.387725E+04 -5.564473E+05  4.828910E+04 -1.035763E+06  2.809094E+05  3.641306E+04
        10   5  7.693825E+03 -5.571112E+05  2.916526E+04 -9.189924E+05  2.285444E+05  2.176278E+04
        10   6  1.105534E+04 -5.542434E+05  2.171411E+04 -1.035794E+06  1.627013E+05  6.918279E+03
        10   7 -9.964497E+05 -4.829615E+06 -7.157981E+05 -1.018677E+06  2.807200E+05  1.127155E+05
        10   8 -7.560087E+05 -3.803343E+06 -5.342669E+05 -9.070156E+05  2.281343E+05  1.207911E+05
        10   9 -5.100079E+05 -2.776440E+06 -3.568473E+05 -1.029009E+06  1.620334E+05  1.286850E+05
        10  10  1.023107E+06  3.734623E+06  8.115534E+05 -1.052927E+06 -1.899834E-09 -1.911680E-09
        10  11  7.707736E+05  2.699502E+06  5.921583E+05 -9.309998E+05 -2.107309E-09  8.970368E-09
        10  12  5.318317E+05  1.672838E+06  4.000946E+05 -1.042579E+06 -2.530979E-09  1.847731E-08
        10  13  1.379216E+04 -5.564699E+05  4.813828E+04 -1.035771E+06  1.581947E-09  8.496375E-11
        10  14  7.637614E+03 -5.571258E+05  2.906620E+04 -9.189964E+05  1.416479E-09  1.985459E-10
        10  15  1.102690E+04 -5.542506E+05  2.166428E+04 -1.035795E+06  1.282437E-10  3.138443E-11
        10  16 -9.965379E+05 -4.829650E+06 -7.159705E+05 -1.018703E+06  2.367622E-09  2.195188E-09
        10  17 -7.560686E+05 -3.803373E+06 -5.343925E+05 -9.070379E+05  3.351411E-09 -9.053163E-09
        10  18 -5.100406E+05 -2.776465E+06 -3.569281E+05 -1.029026E+06 -1.310600E-09 -1.845888E-08
        10  19  1.023192E+06  3.734646E+06  8.117048E+05 -1.052936E+06 -2.811022E+05  4.040331E+04
        10  20  7.708315E+05  2.699522E+06  5.922680E+05 -9.310140E+05 -2.289569E+05  7.777012E+04
        10  21  5.318639E+05  1.672859E+06  4.001695E+05 -1.042594E+06 -1.633704E+05  1.152719E+05
        10  22  1.387725E+04 -5.564473E+05  4.828910E+04 -1.035763E+06 -2.809094E+05 -3.641306E+04
        10  23  7.693825E+03 -5.571112E+05  2.916526E+04 -9.189924E+05 -2.285444E+05 -2.176278E+04
        10  24  1.105534E+04 -5.542434E+05  2.171411E+04 -1.035794E+06 -1.627013E+05 -6.918279E+03
        10  25 -9.964497E+05 -4.829615E+06 -7.157981E+05 -1.018677E+06 -2.807200E+05 -1.127155E+05
        10  26 -7.560087E+05 -3.803343E+06 -5.342669E+05 -9.070156E+05 -2.281343E+05 -1.207911E+05
        10  27 -5.100079E+05 -2.776440E+06 -3.568473E+05 -1.029009E+06 -1.620334E+05 -1.286850E+05
        11   1  3.735857E+05  9.994997E+05  2.783460E+05 -1.043400E+06  1.197147E+05 -1.194531E+05
        11   2  1.362504E+05 -3.030669E+04  9.404866E+04 -9.109060E+05  5.582051E+04 -1.006300E+05
        11   3 -8.394573E+04 -1.059597E+06 -9.892661E+04 -1.011765E+06  1.028716E+04 -8.180149E+04
        11   4  1.143731E+04 -5.534651E+05  2.033519E+04 -1.035757E+06  1.189918E+05  3.217854E+03
        11   5  1.707517E+04 -5.556906E+05  2.304895E+04 -9.190035E+05  5.526572E+04 -8.893185E+03
        11   6  4.526811E+04 -5.530954E+05  3.854426E+04 -1.035583E+06  9.905639E+03 -2.096738E+04
        11   7 -3.508281E+05 -2.104017E+06 -2.376921E+05 -1.028129E+06  1.182708E+05  1.255926E+05
        11   8 -1.021071E+05 -1.080775E+06 -4.792166E+04 -9.270933E+05  5.470823E+04  8.276959E+04
        11   9  1.744649E+05 -4.635756E+04  1.760076E+05 -1.059420E+06  9.519628E+03  3.991685E+04
        11  10  3.735665E+05  9.994806E+05  2.782924E+05 -1.043388E+06 -3.604986E-09 -2.283998E-08
        11  11  1.362443E+05 -3.031839E+04  9.402381E+04 -9.109014E+05 -1.097066E-09 -9.544511E-09
        11  12 -8.394765E+04 -1.059604E+06 -9.893940E+04 -1.011764E+06 -4.938758E-10  5.010162E-09
        11  13  1.142210E+04 -5.534689E+05  2.030857E+04 -1.035757E+06 -3.377441E-09 -4.864659E-11
        11  14  1.707187E+04 -5.556915E+05  2.304306E+04 -9.190031E+05 -4.353323E-09  1.519388E-10
        11  15  4.526789E+04 -5.530959E+05  3.854325E+04 -1.035583E+06  1.863206E-10  3.590799E-11
        11  16 -3.508474E+05 -2.104037E+06 -2.377482E+05 -1.028141E+06 -2.632151E-09  2.282977E-08
        11  17 -1.021122E+05 -1.080783E+06 -4.794021E+04 -9.270969E+05 -1.611539E-09  9.778588E-09
        11  18  1.744644E+05 -4.635929E+04  1.760044E+05 -1.059420E+06  4.236360E-10 -4.812592E-09
        11  19  3.735857E+05  9.994997E+05  2.783460E+05 -1.043400E+06 -1.197147E+05  1.194531E+05
        11  20  1.362504E+05 -3.030669E+04  9.404866E+04 -9.109060E+05 -5.582051E+04  1.006300E+05
        11  21 -8.394573E+04 -1.059597E+06 -9.892661E+04 -1.011765E+06 -1.028716E+04  8.180149E+04
        11  22  1.143731E+04 -5.534651E+05  2.033519E+04 -1.035757E+06 -1.189918E+05 -3.217854E+03
        11  23  1.707517E+04 -5.556906E+05  2.304895E+04 -9.190035E+05 -5.526572E+04  8.893185E+03
        11  24  4.526811E+04 -5.530954E+05  3.854426E+04 -1.035583E+06 -9.905639E+03  2.096738E+04
        11  25 -3.508281E+05 -2.104017E+06 -2.376921E+05 -1.028129E+06 -1.182708E+05 -1.255926E+05
        11  26 -1.021071E+05 -1.080775E+06 -4.792166E+04 -9.270933E+05 -5.470823E+04 -8.276959E+04
        11  27  1.744649E+05 -4.635756E+04  1.760076E+05 -1.059420E+06 -9.519628E+03 -3.991685E+04
        12   1 -3.403099E+06 -9.465831E+05 -4.836671E+05 -1.285861E+06 -2.809136E+05 -1.028123E+05
        12   2 -3.336006E+06 -5.176101E+05 -2.210532E+05 -1.302547E+06 -1.789433E+05 -6.014577E+04
        12   3 -3.402362E+06 -4.654579E+05 -1.345062E+05 -1.244814E+06 -7.498200E+04 -2.276623E+04
        12   4 -3.310625E+06 -7.872536E+05 -4.341499E+05 -1.132625E+06 -2.765185E+05 -1.012357E+05
        12   5 -3.220984E+06 -4.356190E+05 -1.844280E+05 -1.231027E+06 -1.781072E+05 -5.984652E+04