
 stresses (elem, integ.pnt.,sxx,syy,szz,sxy,sxz,syz) for set ELALL and time  0.1000000E+01

         1   1  3.863789E+06  1.437256E+07  3.688550E+06 -2.333439E+06  1.882148E+05  1.240694E+06
         1   2  3.141137E+06  1.226675E+07  2.577221E+06 -2.096864E+06  6.277756E+05  5.459262E+05
         1   3  2.622000E+06  1.031678E+07  1.965581E+06 -2.252281E+06  7.171778E+05 -1.459899E+05
         1   4  1.293649E+05 -8.721905E+05  1.391140E+05 -2.194019E+06  1.936116E+05  9.024415E+04
         1   5  2.714298E+04 -8.837657E+05  7.118688E+04 -1.998386E+06  6.319702E+05  5.755975E+04
         1   6  1.696254E+04 -8.552265E+05  4.991685E+04 -2.194824E+06  7.168523E+05  2.520804E+04
         1   7 -3.620662E+06 -1.590278E+07 -3.421171E+06 -2.057428E+06  1.986054E+05 -1.032648E+06
         1   8 -3.096832E+06 -1.386913E+07 -2.441812E+06 -1.901531E+06  6.360757E+05 -4.208648E+05
         1   9 -2.594699E+06 -1.190579E+07 -1.869869E+06 -2.137980E+06  7.165540E+05  1.934565E+05
         1  10  3.863347E+06  1.437093E+07  3.685651E+06 -2.333626E+06  2.695143E-12  1.295596E-08
         1  11  3.140635E+06  1.226632E+07  2.575925E+06 -2.097139E+06  1.963650E-08  3.654847E-09
         1  12  2.621443E+06  1.031662E+07  1.964577E+06 -2.252198E+06  8.098531E-09 -4.514428E-09
         1  13  1.293223E+05 -8.722094E+05  1.390280E+05 -2.194034E+06 -2.080018E-09  8.941130E-11
         1  14  2.671325E+04 -8.838765E+05  7.042990E+04 -1.998416E+06  6.555230E-09  4.573133E-12
         1  15  1.641071E+04 -8.553651E+05  4.895008E+04 -2.194839E+06  1.312908E-08 -2.023948E-10
         1  16 -3.620999E+06 -1.590396E+07 -3.423297E+06 -2.057262E+06  8.867946E-11 -1.234673E-08
         1  17 -3.097313E+06 -1.386943E+07 -2.442908E+06 -1.901314E+06 -5.201498E-09 -3.869188E-09
         1  18 -2.595261E+06 -1.190597E+07 -1.870907E+06 -2.138093E+06  4.909337E-09  4.524058E-09
         1  19  3.863789E+06  1.437256E+07  3.688550E+06 -2.333439E+06 -1.882148E+05 -1.240694E+06
         1  20  3.141137E+06  1.226675E+07  2.577221E+06 -2.096864E+06 -6.277756E+05 -5.459262E+05
         1  21  2.622000E+06  1.031678E+07  1.965581E+06 -2.252281E+06 -7.171778E+05  1.459899E+05
         1  22  1.293649E+05 -8.721905E+05  1.391140E+05 -2.194019E+06 -1.936116E+05 -9.024415E+04
         1  23  2.714298E+04 -8.837657E+05  7.118688E+04 -1.998386E+06 -6.319702E+05 -5.755975E+04
         1  24  1.696254E+04 -8.552265E+05  4.991685E+04 -2.194824E+06 -7.168523E+05 -2.520804E+04
         1  25 -3.620662E+06 -1.590278E+07 -3.421171E+06 -2.057428E+06 -1.986054E+05  1.032648E+06
         1  26 -3.096832E+06 -1.386913E+07 -2.441812E+06 -1.901531E+06 -6.360757E+05  4.208648E+05
         1  27 -2.594699E+06 -1.190579E+07 -1.869869E+06 -2.137980E+06 -7.165540E+05 -1.934565E+05
         2   1  2.318327E+06  8.992788E+06  1.709323E+06 -2.267244E+06  6.541485E+05 -1.298543E+05
         2   2  1.840810E+06  6.957160E+06  1.320257E+06 -2.046342E+06  5.588997E+05 -2.174044E+05
         2   3  1.394922E+06  4.943389E+06  9.951947E+05 -2.241573E+06  4.286713E+05 -3.055536E+05
         2   4  2.442405E+04 -8.575335E+05  4.436091E+04 -2.200179E+06  6.536653E+05  1.698082E+04
         2   5  2.832460E+04 -8.556166E+05  4.382983E+04 -1.991879E+06  5.572599E+05 -5.123372E+03
         2   6  5.285594E+04 -8.470638E+05  6.230913E+04 -2.200023E+06  4.256468E+05 -2.809686E+04
         2   7 -2.274563E+06 -1.061309E+07 -1.623658E+06 -2.133833E+06  6.532084E+05  1.615850E+05
         2   8 -1.787248E+06 -8.608242E+06 -1.234180E+06 -1.937880E+06  5.556435E+05  2.046009E+05
         2   9 -1.290858E+06 -6.604218E+06 -8.711993E+05 -2.158724E+06  4.226404E+05  2.468799E+05
         2  10  2.317864E+06  8.992655E+06  1.708489E+06 -2.267176E+06  3.741411E-09  6.605369E-09
         2  11  1.840463E+06  6.957026E+06  1.319584E+06 -2.046245E+06  4.837595E-09 -2.722907E-09
         2  12  1.394700E+06  4.943241E+06  9.946776E+05 -2.241468E+06  4.403060E-09 -9.615235E-09
         2  13  2.396531E+04 -8.576484E+05  4.355759E+04 -2.200188E+06  6.624556E-09  9.693447E-11
         2  14  2.799131E+04 -8.556999E+05  4.324652E+04 -1.991877E+06  8.491352E-09  2.864570E-10
         2  15  5.266134E+04 -8.471131E+05  6.196755E+04 -2.200013E+06 -7.390714E-09  8.379183E-10
         2  16 -2.275029E+06 -1.061323E+07 -1.624510E+06 -2.133919E+06  1.255768E-08 -7.108459E-09
         2  17 -1.787591E+06 -8.608370E+06 -1.234841E+06 -1.937972E+06  1.214499E-08  2.836738E-09
         2  18 -1.291066E+06 -6.604332E+06 -8.716522E+05 -2.158808E+06 -3.222683E-09  1.012653E-08
         2  19  2.318327E+06  8.992788E+06  1.709323E+06 -2.267244E+06 -6.541485E+05  1.298543E+05
         2  20  1.840810E+06  6.957160E+06  1.320257E+06 -2.046342E+06 -5.588997E+05  2.174044E+05
         2  21  1.394922E+06  4.943389E+06  9.951947E+05 -2.241573E+06 -4.286713E+05  3.055536E+05
         2  22  2.442405E+04 -8.575335E+05  4.436091E+04 -2.200179E+06 -6.536653E+05 -1.698082E+04
         2  23  2.832460E+04 -8.556166E+05  4.382983E+04 -1.991879E+06 -5.572599E+05  5.123372E+03
         2  24  5.285594E+04 -8.470638E+05  6.230913E+04 -2.200023E+06 -4.256468E+05  2.809686E+04
         2  25 -2.274563E+06 -1.061309E+07 -1.623658E+06 -2.133833E+06 -6.532084E+05 -1.615850E+05
         2  26 -1.787248E+06 -8.608242E+06 -1.234180E+06 -1.937880E+06 -5.556435E+05 -2.046009E+05
         2  27 -1.290858E+06 -6.604218E+06 -8.711993E+05 -2.158724E+06 -4.226404E+05 -2.468799E+05
         3   1  1.096844E+06  3.652728E+06  7.925703E+05 -2.246999E+06  3.408321E+05 -3.147422E+05
         3   2  6.747291E+05  1.616115E+06  5.206840E+05 -1.938953E+06  1.940302E+05 -3.811105E+05
         3   3  3.885868E+05 -3.821370E+05  3.235016E+05 -2.049096E+06  4.845144E+04 -4.475340E+05
         3   4  5.639892E+04 -8.383407E+05  7.677293E+04 -2.200629E+06  3.375498E+05 -3.961068E+04
         3   5  1.050469E+05 -8.538630E+05  1.311714E+05 -1.990377E+06  1.906033E+05 -1.085138E+05
         3   6  2.903877E+05 -8.348871E+05  2.618384E+05 -2.198102E+06  4.489806E+04 -1.776558E+05
         3   7 -9.850105E+05 -5.309253E+06 -6.392654E+05 -2.154514E+06  3.342926E+05  2.336119E+05
         3   8 -4.648825E+05 -3.317600E+06 -2.582112E+05 -2.041563E+06  1.871222E+05  1.630408E+05
         3   9  1.923050E+05 -1.287222E+06  2.004596E+05 -2.346995E+06  4.121324E+04  9.203433E+04
         3  10  1.096693E+06  3.652592E+06  7.921688E+05 -2.246913E+06 -4.454435E-10  1.321013E-08
         3  11  6.746502E+05  1.615950E+06  5.203422E+05 -1.938893E+06 -3.471502E-09  6.506781E-10
         3  12  3.885306E+05 -3.823527E+05  3.231209E+05 -2.049079E+06  8.986085E-10 -1.162955E-08
         3  13  5.627628E+04 -8.383728E+05  7.655620E+04 -2.200619E+06 -5.015214E-09  5.633032E-10
         3  14  1.050049E+05 -8.538853E+05  1.310814E+05 -1.990360E+06  1.395809E-09  3.227108E-10
         3  15  2.903771E+05 -8.349215E+05  2.617753E+05 -2.198096E+06  1.678119E-09 -6.068594E-11
         3  16 -9.851457E+05 -5.309343E+06 -6.395800E+05 -2.154577E+06  5.500995E-09 -1.249739E-08
         3  17 -4.649274E+05 -3.317638E+06 -2.583276E+05 -2.041588E+06  1.180906E-08 -8.780103E-10
         3  18  1.923008E+05 -1.287231E+06  2.004404E+05 -2.346998E+06  5.013434E-09  1.211832E-08
         3  19  1.096844E+06  3.652728E+06  7.925703E+05 -2.246999E+06 -3.408321E+05  3.147422E+05
         3  20  6.747291E+05  1.616115E+06  5.206840E+05 -1.938953E+06 -1.940302E+05  3.811105E+05
         3  21  3.885868E+05 -3.821370E+05  3.235016E+05 -2.049096E+06 -4.845144E+04  4.475340E+05
         3  22  5.639892E+04 -8.383407E+05  7.677293E+04 -2.200629E+06 -3.375498E+05  3.961068E+04
         3  23  1.050469E+05 -8.538630E+05  1.311714E+05 -1.990377E+06 -1.906033E+05  1.085138E+05
         3  24  2.903877E+05 -8.348871E+05  2.618384E+05 -2.198102E+06 -4.489806E+04  1.776558E+05
         3  25 -9.850105E+05 -5.309253E+06 -6.392654E+05 -2.154514E+06 -3.342926E+05 -2.336119E+05
         3  26 -4.648825E+05 -3.317600E+06 -2.582112E+05 -2.041563E+06 -1.871222E+05 -1.630408E+05
         3  27  1.923050E+05 -1.287222E+06  2.004596E+05 -2.346995E+06 -4.121324E+04 -9.203433E+04
         4   1 -8.448046E+06 -2.603378E+06 -1.730892E+06 -2.857060E+06 -8.329058E+05 -2.987279E+05
         4   2 -8.165079E+06 -1.324933E+06 -9.310280E+05 -3.007109E+06 -5.402641E+05 -1.650388E+05
         4   3 -8.292234E+06 -1.423352E+06 -7.046575E+05 -2.941214E+06 -2.368822E+05 -6.001082E+04
         4   4 -7.009479E+06 -1.893533E+06 -1.299775E+06 -2.298763E+06 -8.248040E+05 -2.959789E+05
         4   5 -6.739380E+06 -7.443881E+05 -5.326744E+05 -2.578723E+06 -5.391776E+05 -1.646875E+05
         4   6 -6.876854E+06 -9.689330E+05 -3.323978E+05 -2.643062E+06 -2.428316E+05 -6.218027E+04
         4   7 -5.568823E+06 -1.183100E+06 -8.688656E+05 -1.739138E+06 -8.166793E+05 -2.932153E+05
         4   8 -5.311699E+06 -1.636363E+05 -1.345137E+05 -2.149404E+06 -5.380869E+05 -1.643343E+05
         4   9 -5.459527E+06 -5.145255E+05  3.969759E+04 -2.344348E+06 -2.487955E+05 -6.435325E+04
         4  10 -8.448824E+06 -2.603665E+06 -1.732386E+06 -2.857263E+06  2.457932E-09  7.226299E-11
         4  11 -8.165403E+06 -1.325042E+06 -9.316369E+05 -3.007181E+06  4.471896E-09  1.307272E-09
         4  12 -8.292296E+06 -1.423371E+06 -7.047714E+05 -2.941225E+06 -8.361184E-09  3.841716E-09
         4  13 -7.010240E+06 -1.893813E+06 -1.301236E+06 -2.298962E+06  4.462114E-09 -5.552121E-10
         4  14 -6.739703E+06 -7.444968E+05 -5.332793E+05 -2.578795E+06  4.322876E-09  7.154047E-10
         4  15 -6.876919E+06 -9.689533E+05 -3.325174E+05 -2.643074E+06 -2.116173E-09  4.504005E-09
         4  16 -5.569568E+06 -1.183375E+06 -8.702947E+05 -1.739332E+06 -2.361845E-10 -7.892869E-10
         4  17 -5.312019E+06 -1.637442E+05 -1.351146E+05 -2.149476E+06 -2.361275E-09  4.603163E-10
         4  18 -5.459595E+06 -5.145469E+05  3.957221E+04 -2.344361E+06 -8.885201E-10  5.710699E-09
         4  19 -8.448046E+06 -2.603378E+06 -1.730892E+06 -2.857060E+06  8.329058E+05  2.987279E+05
         4  20 -8.165079E+06 -1.324933E+06 -9.310280E+05 -3.007109E+06  5.402641E+05  1.650388E+05
         4  21 -8.292234E+06 -1.423352E+06 -7.046575E+05 -2.941214E+06  2.368822E+05  6.001082E+04
         4  22 -7.009479E+06 -1.893533E+06 -1.299775E+06 -2.298763E+06  8.248040E+05  2.959789E+05
         4  23 -6.739380E+06 -7.443881E+05 -5.326744E+05 -2.578723E+06  5.391776E+05  1.646875E+05
         4  24 -6.876854E+06 -9.689330E+05 -3.323978E+05 -2.643062E+06  2.428316E+05  6.218027E+04
         4  25 -5.568823E+06 -1.183100E+06 -8.688656E+05 -1.739138E+06  8.166793E+05  2.932153E+05
         4  26 -5.311699E+06 -1.636363E+05 -1.345137E+05 -2.149404E+06  5.380869E+05  1.643343E+05
         4  27 -5.459527E+06 -5.145255E+05  3.969759E+04 -2.344348E+06  2.487955E+05  6.435325E+04
         5   1 -7.671153E+06 -1.479812E+06 -5.113088E+05 -2.832849E+06 -1.904744E+05 -5.101853E+04
         5   2 -7.545724E+06 -1.153538E+06 -3.124958E+05 -2.708788E+06 -1.220034E+05 -2.924864E+04
         5   3 -7.310965E+06 -1.188890E+06 -2.125212E+05 -2.754218E+06 -5.177734E+04 -1.221414E+04
         5   4 -6.817077E+06 -1.137922E+06 -2.735568E+05 -2.582188E+06 -1.908388E+05 -5.116326E+04
         5   5 -6.862791E+06 -8.925412E+05 -1.249593E+05 -2.521213E+06 -1.235412E+05 -2.981745E+04
         5   6 -6.798878E+06 -1.008406E+06 -7.414463E+04 -2.629743E+06 -5.451004E+04 -1.321662E+04
         5   7 -5.962292E+06 -7.959662E+05 -3.587356E+04 -2.331203E+06 -1.912037E+05 -5.130815E+04
         5   8 -6.179406E+06 -6.315157E+05  6.253392E+04 -2.333448E+06 -1.250808E+05 -3.038695E+04
         5   9 -6.286538E+06 -8.279173E+05  6.420836E+04 -2.505178E+06 -5.724521E+04 -1.421989E+04
         5  10 -7.671193E+06 -1.479825E+06 -5.113829E+05 -2.832857E+06 -5.759059E-09  1.900249E-09
         5  11 -7.545741E+06 -1.153543E+06 -3.125258E+05 -2.708791E+06  4.571625E-09  9.821926E-11
         5  12 -7.310968E+06 -1.188891E+06 -2.125266E+05 -2.754219E+06 -1.924836E-09  3.881753E-11
         5  13 -6.817117E+06 -1.137935E+06 -2.736311E+05 -2.582196E+06 -1.428615E-08  3.834045E-09
         5  14 -6.862808E+06 -8.925464E+05 -1.249901E+05 -2.521216E+06  4.377323E-09 -1.163032E-09
         5  15 -6.798881E+06 -1.008407E+06 -7.415062E+04 -2.629744E+06 -1.103167E-08 -2.876943E-09
         5  16 -5.962333E+06 -7.959790E+05 -3.594801E+04 -2.331211E+06 -1.580911E-08  3.820984E-09
         5  17 -6.179424E+06 -6.315209E+05  6.250244E+04 -2.333451E+06 -9.654366E-09  1.124560E-09
         5  18 -6.286542E+06 -8.279184E+05  6.420174E+04 -2.505179E+06  1.796062E-09  1.301738E-09
         5  19 -7.671153E+06 -1.479812E+06 -5.113088E+05 -2.832849E+06  1.904744E+05  5.101853E+04
         5  20 -7.545724E+06 -1.153538E+06 -3.124958E+05 -2.708788E+06  1.220034E+05  2.924864E+04
         5  21 -7.310965E+06 -1.188890E+06 -2.125212E+05 -2.754218E+06  5.177734E+04  1.221414E+04
         5  22 -6.817077E+06 -1.137922E+06 -2.735568E+05 -2.582188E+06  1.908388E+05  5.116326E+04
         5  23 -6.862791E+06 -8.925412E+05 -1.249593E+05 -2.521213E+06  1.235412E+05  2.981745E+04
         5  24 -6.798878E+06 -1.008406E+06 -7.414463E+04 -2.629743E+06  5.451004E+04  1.321662E+04
         5  25 -5.962292E+06 -7.959662E+05 -3.587356E+04 -2.331203E+06  1.912037E+05  5.130815E+04
         5  26 -6.179406E+06 -6.315157E+05  6.253392E+04 -2.333448E+06  1.250808E+05  3.038695E+04
         5  27 -6.286538E+06 -8.279173E+05  6.420836E+04 -2.505178E+06  5.724521E+04  1.421989E+04
         6   1 -6.639224E+06 -9.785398E+05 -1.779133E+04 -2.584708E+06 -3.965229E+04 -1.382496E+04
         6   2 -6.535651E+06 -7.843636E+05  6.504157E+04 -2.421606E+06 -2.204421E+04 -1.567742E+04
         6   3 -6.247403E+06 -8.114033E+05  1.298443E+05 -2.482295E+06 -4.567670E+03 -1.712748E+04
         6   4 -6.789679E+06 -1.032029E+06 -5.898432E+04 -2.621668E+06 -4.165111E+04 -1.455866E+04
         6   5 -6.880770E+06 -9.128375E+05 -2.904255E+04 -2.512877E+06 -2.393937E+04 -1.637440E+04
         6   6 -6.787232E+06 -1.014898E+06 -1.720864E+04 -2.627900E+06 -6.364417E+03 -1.778954E+04
         6   7 -6.940112E+06 -1.085519E+06 -1.001795E+05 -2.658621E+06 -4.364939E+04 -1.529220E+04
         6   8 -7.225774E+06 -1.041306E+06 -1.231377E+05 -2.604103E+06 -2.583336E+04 -1.707097E+04
         6   9 -7.326780E+06 -1.218376E+06 -1.642883E+05 -2.773389E+06 -8.159432E+03 -1.845095E+04
         6  10 -6.639226E+06 -9.785404E+05 -1.779468E+04 -2.584708E+06  5.365212E-09 -2.232840E-10
         6  11 -6.535652E+06 -7.843640E+05  6.504018E+04 -2.421606E+06  6.592942E-10 -6.256607E-10
         6  12 -6.247403E+06 -8.114037E+05  1.298437E+05 -2.482295E+06  7.132320E-09  3.174429E-09
         6  13 -6.789681E+06 -1.032030E+06 -5.898803E+04 -2.621669E+06 -1.005532E-08 -2.700828E-09
         6  14 -6.880770E+06 -9.128380E+05 -2.904415E+04 -2.512877E+06  7.661030E-09 -8.522581E-10
         6  15 -6.787232E+06 -1.014898E+06 -1.720931E+04 -2.627900E+06  2.270079E-09  1.307607E-09
         6  16 -6.940114E+06 -1.085519E+06 -1.001836E+05 -2.658622E+06 -1.346117E-09  5.951092E-10
         6  17 -7.225775E+06 -1.041306E+06 -1.231395E+05 -2.604103E+06 -3.188405E-09 -1.562367E-09
         6  18 -7.326780E+06 -1.218376E+06 -1.642891E+05 -2.773389E+06 -7.363998E-10  4.429342E-10
         6  19 -6.639224E+06 -9.785398E+05 -1.779133E+04 -2.584708E+06  3.965229E+04  1.382496E+04
         6  20 -6.535651E+06 -7.843636E+05  6.504157E+04 -2.421606E+06  2.204421E+04  1.567742E+04
         6  21 -6.247403E+06 -8.114033E+05  1.298443E+05 -2.482295E+06  4.567670E+03  1.712748E+04
         6  22 -6.789679E+06 -1.032029E+06 -5.898432E+04 -2.621668E+06  4.165111E+04  1.455866E+04
         6  23 -6.880770E+06 -9.128375E+05 -2.904255E+04 -2.512877E+06  2.393937E+04  1.637440E+04
         6  24 -6.787232E+06 -1.014898E+06 -1.720864E+04 -2.627900E+06  6.364417E+03  1.778954E+04
         6  25 -6.940112E+06 -1.085519E+06 -1.001795E+05 -2.658621E+06  4.364939E+04  1.529220E+04
         6  26 -7.225774E+06 -1.041306E+06 -1.231377E+05 -2.604103E+06  2.583336E+04  1.707097E+04
         6  27 -7.326780E+06 -1.218376E+06 -1.642883E+05 -2.773389E+06  8.159432E+03  1.845095E+04
         7   1 -5.686732E+06 -5.875961E+05  2.907859E+05 -2.314149E+06 -2.596840E+02 -2.044736E+04
         7   2 -5.622680E+06 -4.657289E+05  3.318966E+05 -2.198610E+06  5.503280E+03 -2.557896E+04
         7   3 -5.417755E+06 -4.823529E+05  3.710655E+05 -2.238301E+06  1.027598E+04 -2.796441E+04
         7   4 -6.798240E+06 -1.003419E+06 -1.319543E+04 -2.610276E+06 -2.321456E+03 -2.121010E+04
         7   5 -6.868507E+06 -9.337156E+05 -8.371334E+03 -2.532764E+06  4.168486E+03 -2.607755E+04
         7   6 -6.798060E+06 -1.002680E+06 -6.072154E+03 -2.610512E+06  9.666356E+03 -2.819641E+04
         7   7 -7.908551E+06 -1.419177E+06 -3.172885E+05 -2.905922E+06 -4.379116E+03 -2.197134E+04
         7   8 -8.112831E+06 -1.401618E+06 -3.487803E+05 -2.866309E+06  2.836677E+03 -2.657503E+04
         7   9 -8.176522E+06 -1.522901E+06 -3.833838E+05 -2.981971E+06  9.058248E+03 -2.842785E+04
         7  10 -5.686732E+06 -5.875965E+05  2.907851E+05 -2.314149E+06  6.199615E-09  1.425045E-09
         7  11 -5.622680E+06 -4.657296E+05  3.318953E+05 -2.198609E+06 -3.694789E-09 -1.487859E-09
         7  12 -5.417755E+06 -4.823537E+05  3.710638E+05 -2.238301E+06  6.021812E-10  2.467332E-09
         7  13 -6.798240E+06 -1.003419E+06 -1.319628E+04 -2.610276E+06 -9.034939E-09  1.576926E-09
         7  14 -6.868507E+06 -9.337163E+05 -8.372641E+03 -2.532764E+06  1.623154E-11 -5.927330E-10
         7  15 -6.798060E+06 -1.002681E+06 -6.073818E+03 -2.610512E+06 -1.252804E-08  2.881443E-09
         7  16 -7.908551E+06 -1.419177E+06 -3.172894E+05 -2.905922E+06 -1.425543E-08  1.795910E-09
         7  17 -8.112831E+06 -1.401619E+06 -3.487816E+05 -2.866309E+06 -5.036804E-09  1.227365E-09
         7  18 -8.176522E+06 -1.522902E+06 -3.833855E+05 -2.981970E+06  4.361029E-09  2.867505E-09
         7  19 -5.686732E+06 -5.875961E+05  2.907859E+05 -2.314149E+06  2.596840E+02  2.044736E+04
         7  20 -5.622680E+06 -4.657289E+05  3.318966E+05 -2.198610E+06 -5.503280E+03  2.557896E+04
         7  21 -5.417755E+06 -4.823529E+05  3.710655E+05 -2.238301E+06 -1.027598E+04  2.796441E+04
         7  22 -6.798240E+06 -1.003419E+06 -1.319543E+04 -2.610276E+06  2.321456E+03  2.121010E+04
         7  23 -6.868507E+06 -9.337156E+05 -8.371334E+03 -2.532764E+06 -4.168486E+03  2.607755E+04
         7  24 -6.798060E+06 -1.002680E+06 -6.072154E+03 -2.610512E+06 -9.666356E+03  2.819641E+04
         7  25 -7.908551E+06 -1.419177E+06 -3.172885E+05 -2.905922E+06  4.379116E+03  2.197134E+04
         7  26 -8.112831E+06 -1.401618E+06 -3.487803E+05 -2.866309E+06 -2.836677E+03  2.657503E+04
         7  27 -8.176522E+06 -1.522901E+06 -3.833838E+05 -2.981971E+06 -9.058248E+03  2.842785E+04
         8   1 -5.167149E+06 -3.527663E+05  4.472482E+05 -2.134740E+06  1.251148E+04 -2.946862E+04
         8   2 -5.162911E+06 -3.299639E+05  4.506942E+05 -2.113419E+06  1.651754E+04 -3.111563E+04
         8   3 -5.123322E+06 -3.320146E+05  4.541709E+05 -2.115535E+06  1.912895E+04 -2.903597E+04
         8   4 -6.821742E+06 -9.770910E+05 -5.555865E+03 -2.581470E+06  1.127595E+04 -2.993671E+04
         8   5 -6.839460E+06 -9.656313E+05 -8.275707E+03 -2.569342E+06  1.627059E+04 -3.121572E+04
         8   6 -6.822047E+06 -9.792480E+05 -1.176198E+04 -2.580656E+06  1.986862E+04 -2.876321E+04
         8   7 -8.473684E+06 -1.601263E+06 -4.586094E+05 -3.027117E+06  1.004409E+04 -3.040345E+04
         8   8 -8.513287E+06 -1.601136E+06 -4.675028E+05 -3.024143E+06  1.602439E+04 -3.131555E+04
         8   9 -8.517978E+06 -1.626310E+06 -4.779606E+05 -3.044618E+06  2.060603E+04 -2.849132E+04
         8  10 -5.167149E+06 -3.527673E+05  4.472463E+05 -2.134739E+06 -3.155015E-09  4.219068E-09
         8  11 -5.162912E+06 -3.299650E+05  4.506919E+05 -2.113418E+06 -5.158456E-09 -4.578913E-09
         8  12 -5.123323E+06 -3.320156E+05  4.541687E+05 -2.115534E+06 -2.903584E-09 -9.145402E-10
         8  13 -6.821742E+06 -9.770919E+05 -5.557781E+03 -2.581469E+06 -1.468266E-09  5.214554E-09
         8  14 -6.839461E+06 -9.656324E+05 -8.278028E+03 -2.569341E+06  2.063407E-08  2.131489E-09
         8  15 -6.822047E+06 -9.792490E+05 -1.176427E+04 -2.580656E+06  5.068144E-09 -1.134610E-09
         8  16 -8.473685E+06 -1.601264E+06 -4.586113E+05 -3.027116E+06  3.247060E-10  2.534532E-09
         8  17 -8.513288E+06 -1.601137E+06 -4.675051E+05 -3.024143E+06 -1.454143E-09  2.168242E-09
         8  18 -8.517979E+06 -1.626311E+06 -4.779629E+05 -3.044618E+06 -1.248871E-09  1.229579E-09
         8  19 -5.167149E+06 -3.527663E+05  4.472482E+05 -2.134740E+06 -1.251148E+04  2.946862E+04
         8  20 -5.162911E+06 -3.299639E+05  4.506942E+05 -2.113419E+06 -1.651754E+04  3.111563E+04
         8  21 -5.123322E+06 -3.320146E+05  4.541709E+05 -2.115535E+06 -1.912895E+04  2.903597E+04
         8  22 -6.821742E+06 -9.770910E+05 -5.555865E+03 -2.581470E+06 -1.127595E+04  2.993671E+04
         8  23 -6.839460E+06 -9.656313E+05 -8.275707E+03 -2.569342E+06 -1.627059E+04  3.121572E+04
         8  24 -6.822047E+06 -9.792480E+05 -1.176198E+04 -2.580656E+06 -1.986862E+04  2.876321E+04
         8  25 -8.473684E+06 -1.601263E+06 -4.586094E+05 -3.027117E+06 -1.004409E+04  3.040345E+04
         8  26 -8.513287E+06 -1.601136E+06 -4.675028E+05 -3.024143E+06 -1.602439E+04  3.131555E+04
         8  27 -8.517978E+06 -1.626310E+06 -4.779606E+05 -3.044618E+06 -2.060603E+04  2.849132E+04
         9   1 -5.274723E+06 -3.498805E+05  4.168906E+05 -2.120348E+06  2.149371E+04 -2.704603E+04
         9   2 -5.325088E+06 -4.301718E+05  3.789955E+05 -2.200060E+06  3.349613E+04 -2.024285E+04
         9   3 -5.474578E+06 -4.313731E+05  3.279763E+05 -2.160903E+06  4.426931E+04 -1.028589E+04
         9   4 -6.850873E+06 -9.498551E+05 -1.508224E+04 -2.551365E+06  2.157911E+04 -2.701998E+04
         9   5 -6.802336E+06 -9.965258E+05 -2.670362E+04 -2.608071E+06  3.439651E+04 -1.990465E+04
         9   6 -6.853149E+06 -9.642983E+05 -5.212889E+04 -2.545891E+06  4.598545E+04 -9.631186E+03
         9   7 -8.424615E+06 -1.549682E+06 -4.472828E+05 -2.981386E+06  2.166425E+04 -2.699404E+04
         9   8 -8.277467E+06 -1.562742E+06 -4.326033E+05 -3.015195E+06  3.529444E+04 -1.956738E+04
         9   9 -8.229875E+06 -1.497096E+06 -4.324097E+05 -2.930094E+06  4.769725E+04 -8.978179E+03
         9  10 -5.274724E+06 -3.498814E+05  4.168884E+05 -2.120348E+06  1.143472E-09  1.212718E-09
         9  11 -5.325089E+06 -4.301725E+05  3.789926E+05 -2.200059E+06  5.432643E-11  3.884387E-11
         9  12 -5.474580E+06 -4.313737E+05  3.279724E+05 -2.160903E+06 -1.372696E-09 -2.851710E-09
         9  13 -6.850874E+06 -9.498560E+05 -1.508448E+04 -2.551365E+06  1.356799E-08  1.291643E-09
         9  14 -6.802337E+06 -9.965265E+05 -2.670660E+04 -2.608071E+06  5.665652E-09 -3.874454E-09
         9  15 -6.853152E+06 -9.642990E+05 -5.213307E+04 -2.545890E+06  8.526437E-09  1.445893E-09
         9  16 -8.424616E+06 -1.549683E+06 -4.472851E+05 -2.981385E+06 -3.117085E-10 -1.137878E-09
         9  17 -8.277468E+06 -1.562743E+06 -4.326064E+05 -3.015195E+06  7.686918E-09 -5.292246E-10
         9  18 -8.229877E+06 -1.497097E+06 -4.324141E+05 -2.930093E+06  1.666035E-09  3.686839E-09
         9  19 -5.274723E+06 -3.498805E+05  4.168906E+05 -2.120348E+06 -2.149371E+04  2.704603E+04
         9  20 -5.325088E+06 -4.301718E+05  3.789955E+05 -2.200060E+06 -3.349613E+04  2.024285E+04
         9  21 -5.474578E+06 -4.313731E+05  3.279763E+05 -2.160903E+06 -4.426931E+04  1.028589E+04
         9  22 -6.850873E+06 -9.498551E+05 -1.508224E+04 -2.551365E+06 -2.157911E+04  2.701998E+04
         9  23 -6.802336E+06 -9.965258E+05 -2.670362E+04 -2.608071E+06 -3.439651E+04  1.990465E+04
         9  24 -6.853149E+06 -9.642983E+05 -5.212889E+04 -2.545891E+06 -4.598545E+04  9.631186E+03
         9  25 -8.424615E+06 -1.549682E+06 -4.472828E+05 -2.981386E+06 -2.166425E+04  2.699404E+04
         9  26 -8.277467E+06 -1.562742E+06 -4.326033E+05 -3.015195E+06 -3.529444E+04  1.956738E+04
         9  27 -8.229875E+06 -1.497096E+06 -4.324097E+05 -2.930094E+06 -4.769725E+04  8.978179E+03
        10   1 -5.964453E+06 -5.855280E+05  1.830090E+05 -2.291220E+06  5.257661E+04 -2.741849E+03
        10   2 -6.037383E+06 -7.139109E+05  8.897909E+04 -2.430979E+06  1.089341E+05  2.591722E+04
        10   3 -6.363145E+06 -8.132113E+05 -9.209859E+04 -2.323095E+06  1.651440E+05  5.484951E+04
        10   4 -6.879739E+06 -9.278347E+05 -6.629188E+04 -2.535425E+06  5.411438E+04 -2.151038E+03
        10   5 -6.761965E+06 -9.984256E+05 -1.114669E+05 -2.637687E+06  1.104811E+05  2.651216E+04
        10   6 -6.897125E+06 -1.040027E+06 -2.437572E+05 -2.492274E+06  1.667201E+05  5.545281E+04
        10   7 -7.794213E+06 -1.270100E+06 -3.156690E+05 -2.779306E+06  5.564957E+04 -1.561159E+03
        10   8 -7.486037E+06 -1.282901E+06 -3.119620E+05 -2.844173E+06  1.120260E+05  2.710626E+04
        10   9 -7.430827E+06 -1.266806E+06 -3.954436E+05 -2.661313E+06  1.682947E+05  5.605536E+04
        10  10 -5.964456E+06 -5.855288E+05  1.830037E+05 -2.291219E+06  3.179876E-09  6.857769E-10
        10  11 -6.037396E+06 -7.139149E+05  8.895527E+04 -2.430981E+06 -1.284252E-09 -4.836999E-09
        10  12 -6.363175E+06 -8.132220E+05 -9.215616E+04 -2.323103E+06 -1.017223E-08 -2.567003E-09
        10  13 -6.879742E+06 -9.278355E+05 -6.629744E+04 -2.535425E+06 -1.248646E-08 -1.255849E-09
        10  14 -6.761978E+06 -9.984297E+05 -1.114914E+05 -2.637690E+06  9.238157E-10 -3.576028E-09
        10  15 -6.897156E+06 -1.040038E+06 -2.438160E+05 -2.492281E+06 -4.073531E-09 -4.388114E-09
        10  16 -7.794217E+06 -1.270101E+06 -3.156749E+05 -2.779306E+06  3.189583E-09 -5.016830E-09
        10  17 -7.486051E+06 -1.282905E+06 -3.119873E+05 -2.844175E+06  8.508253E-09 -6.255972E-09
        10  18 -7.430859E+06 -1.266817E+06 -3.955035E+05 -2.661321E+06  7.253128E-09 -1.792052E-09
        10  19 -5.964453E+06 -5.855280E+05  1.830090E+05 -2.291220E+06 -5.257661E+04  2.741849E+03
        10  20 -6.037383E+06 -7.139109E+05  8.897909E+04 -2.430979E+06 -1.089341E+05 -2.591722E+04
        10  21 -6.363145E+06 -8.132113E+05 -9.209859E+04 -2.323095E+06 -1.651440E+05 -5.484951E+04
        10  22 -6.879739E+06 -9.278347E+05 -6.629188E+04 -2.535425E+06 -5.411438E+04  2.151038E+03
        10  23 -6.761965E+06 -9.984256E+05 -1.114669E+05 -2.637687E+06 -1.104811E+05 -2.651216E+04
        10  24 -6.897125E+06 -1.040027E+06 -2.437572E+05 -2.492274E+06 -1.667201E+05 -5.545281E+04
        10  25 -7.794213E+06 -1.270100E+06 -3.156690E+05 -2.779306E+06 -5.564957E+04  1.561159E+03
        10  26 -7.486037E+06 -1.282901E+06 -3.119620E+05 -2.844173E+06 -1.120260E+05 -2.710626E+04
        10  27 -7.430827E+06 -1.266806E+06 -3.954436E+05 -2.661313E+06 -1.682947E+05 -5.605536E+04
        11   1 -6.980858E+06 -9.941962E+05 -3.237884E+05 -2.648108E+06  2.040299E+05  7.749369E+04
        11   2 -6.983104E+06 -9.336604E+05 -5.541238E+05 -2.719599E+06  4.644466E+05  1.879962E+05
        11   3 -7.658573E+06 -1.801599E+06 -1.294959E+06 -2.265401E+06  7.295335E+05  2.862034E+05
        11   4 -6.937478E+06 -9.051820E+05 -2.968622E+05 -2.564464E+06  2.079503E+05  7.904232E+04
        11   5 -6.663854E+06 -8.500894E+05 -4.743560E+05 -2.670027E+06  4.652142E+05  1.882555E+05
        11   6 -7.062598E+06 -1.722460E+06 -1.159535E+06 -2.249891E+06  7.272802E+05  2.851093E+05
        11   7 -6.894085E+06 -8.161370E+05 -2.699337E+05 -2.480809E+06  2.118710E+05  8.059220E+04
        11   8 -6.344503E+06 -7.665216E+05 -3.945952E+05 -2.620437E+06  4.659821E+05  1.885149E+05
        11   9 -6.466237E+06 -1.643308E+06 -1.024120E+06 -2.234403E+06  7.250242E+05  2.840158E+05
        11  10 -6.980905E+06 -9.942140E+05 -3.238791E+05 -2.648121E+06 -1.671474E-09 -3.151666E-09
        11  11 -6.983347E+06 -9.337576E+05 -5.546018E+05 -2.719670E+06  1.200359E-08 -5.967888E-09
        11  12 -7.659173E+06 -1.801833E+06 -1.296129E+06 -2.265571E+06  6.327164E-09  1.374596E-10
        11  13 -6.937527E+06 -9.052006E+05 -2.969564E+05 -2.564477E+06 -8.841307E-09  1.322258E-09
        11  14 -6.664098E+06 -8.501869E+05 -4.748353E+05 -2.670098E+06  1.211443E-09 -4.709539E-09
        11  15 -7.063194E+06 -1.722693E+06 -1.160697E+06 -2.250059E+06 -9.881410E-10  3.862708E-09
        11  16 -6.894135E+06 -8.161563E+05 -2.700315E+05 -2.480823E+06 -3.716541E-09  1.210603E-09
        11  17 -6.344748E+06 -7.666193E+05 -3.950758E+05 -2.620508E+06 -7.028663E-09 -1.286017E-09
        11  18 -6.466829E+06 -1.643539E+06 -1.025273E+06 -2.234570E+06 -1.814002E-09 -4.610599E-10
        11  19 -6.980858E+06 -9.941962E+05 -3.237884E+05 -2.648108E+06 -2.040299E+05 -7.749369E+04
        11  20 -6.983104E+06 -9.336604E+05 -5.541238E+05 -2.719599E+06 -4.644466E+05 -1.879962E+05
        11  21 -7.658573E+06 -1.801599E+06 -1.294959E+06 -2.265401E+06 -7.295335E+05 -2.862034E+05
        11  22 -6.937478E+06 -9.051820E+05 -2.968622E+05 -2.564464E+06 -2.079503E+05 -7.904232E+04
        11  23 -6.663854E+06 -8.500894E+05 -4.743560E+05 -2.670027E+06 -4.652142E+05 -1.882555E+05
        11  24 -7.062598E+06 -1.722460E+06 -1.159535E+06 -2.249891E+06 -7.272802E+05 -2.851093E+05
        11  25 -6.894085E+06 -8.161370E+05 -2.699337E+05 -2.480809E+06 -2.118710E+05 -8.059220E+04
        11  26 -6.344503E+06 -7.665216E+05 -3.945952E+05 -2.620437E+06 -4.659821E+05 -1.885149E+05
        11  27 -6.466237E+06 -1.643308E+06 -1.024120E+06 -2.234403E+06 -7.250242E+05 -2.840158E+05
        12   1  8.165321E+04  7.556395E+05  9.712308E+04  5.411068E+02  2.018341E+03 -1.549749E+03
        12   2  7.799373E+04  7.524875E+05  9.980495E+04 -1.470154E+03  2.010310E+03 -1.139621E+04
        12   3  9.089202E+04  7.579791E+05  1.136770E+05  1.077913E+03  2.150117E+03 -2.124262E+04
        12   4  1.199944E+03  4.335095E+05  1.677147E+04  1.006855E+03  2.018403E+03 -1.541044E+03
        12   5 -2.752776E+03  4.291861E+05  1.915905E+04 -1.261643E+03  2.010378E+03 -1.139723E+04