
 stresses (elem, integ.pnt.,sxx,syy,szz,sxy,sxz,syz) for set ELALL and time  0.1000000E+01

         1   1  2.688522E+06  1.516200E+05  1.764218E+05  8.343512E+04  1.201260E+05  1.607762E+01
         1   2  2.670785E+06  1.377572E+04  8.414871E+04  3.274042E+04  7.606655E+04  3.995022E+00
         1   3  2.688716E+06 -4.137530E+03  5.045773E+04 -1.795268E+04  3.200626E+04 -9.217048E-01
         1   4  2.688515E+06  1.516069E+05  1.764199E+05 -4.777635E-09  1.201260E+05 -3.148970E-11
         1   5  2.670784E+06  1.377372E+04  8.414842E+04  8.502464E-10  7.606655E+04 -1.303745E-10
         1   6  2.688716E+06 -4.138133E+03  5.045764E+04 -5.452950E-09  3.200626E+04 -2.027828E-10
         1   7  2.688522E+06  1.516200E+05  1.764218E+05 -8.343512E+04  1.201260E+05 -1.607762E+01
         1   8  2.670785E+06  1.377572E+04  8.414871E+04 -3.274042E+04  7.606655E+04 -3.995022E+00
         1   9  2.688716E+06 -4.137530E+03  5.045773E+04  1.795268E+04  3.200626E+04  9.217048E-01
         1  10  2.688507E+06  1.516161E+05  1.763948E+05  8.343511E+04 -3.482627E-10  2.006629E-11
         1  11  2.670779E+06  1.377418E+04  8.413788E+04  3.274042E+04 -6.652509E-10 -1.123619E-11
         1  12  2.688715E+06 -4.137804E+03  5.045581E+04 -1.795268E+04 -4.712293E-10 -1.275088E-10
         1  13  2.688499E+06  1.516031E+05  1.763929E+05 -1.543052E-09  5.059288E-11  3.420817E-11
         1  14  2.670778E+06  1.377217E+04  8.413760E+04 -1.367088E-09 -5.578648E-10 -1.050711E-12
         1  15  2.688715E+06 -4.138407E+03  5.045573E+04 -1.174366E-09 -4.136394E-10 -2.779453E-10
         1  16  2.688507E+06  1.516161E+05  1.763948E+05 -8.343511E+04 -6.269231E-10  3.191579E-11
         1  17  2.670779E+06  1.377418E+04  8.413788E+04 -3.274042E+04  7.869324E-10  1.319983E-11
         1  18  2.688715E+06 -4.137804E+03  5.045581E+04  1.795268E+04  3.009089E-10 -3.966791E-10
         1  19  2.688522E+06  1.516200E+05  1.764218E+05  8.343512E+04 -1.201260E+05 -1.607762E+01
         1  20  2.670785E+06  1.377572E+04  8.414871E+04  3.274042E+04 -7.606655E+04 -3.995022E+00
         1  21  2.688716E+06 -4.137530E+03  5.045773E+04 -1.795268E+04 -3.200626E+04  9.217048E-01
         1  22  2.688515E+06  1.516069E+05  1.764199E+05 -2.625469E-09 -1.201260E+05  7.798381E-11
         1  23  2.670784E+06  1.377372E+04  8.414842E+04  2.896846E-09 -7.606655E+04  1.344586E-10
         1  24  2.688716E+06 -4.138133E+03  5.045764E+04 -3.701347E-10 -3.200626E+04 -3.243098E-10
         1  25  2.688522E+06  1.516200E+05  1.764218E+05 -8.343512E+04 -1.201260E+05  1.607762E+01
         1  26  2.670785E+06  1.377572E+04  8.414871E+04 -3.274042E+04 -7.606655E+04  3.995022E+00
         1  27  2.688716E+06 -4.137530E+03  5.045773E+04  1.795268E+04 -3.200626E+04 -9.217048E-01
         2   1  2.681498E+06  5.892516E+03  4.149381E+04  2.255764E+03  2.487409E+04  9.000641E-02
         2   2  2.679853E+06  1.536500E+01  2.899079E+04  7.997718E+02  1.042488E+04  1.337427E-02
         2   3  2.681512E+06 -1.361383E+02  2.729686E+04 -6.562253E+02 -4.024237E+03  4.236122E-03
         2   4  2.681498E+06  5.892506E+03  4.149381E+04 -4.101543E-09  2.487409E+04 -2.997807E-10
         2   5  2.679853E+06  1.536381E+01  2.899079E+04  6.258501E-10  1.042488E+04 -3.929371E-10
         2   6  2.681512E+06 -1.361391E+02  2.729686E+04 -3.642373E-09 -4.024237E+03 -3.449459E-10
         2   7  2.681498E+06  5.892516E+03  4.149381E+04 -2.255764E+03  2.487409E+04 -9.000641E-02
         2   8  2.679853E+06  1.536500E+01  2.899079E+04 -7.997718E+02  1.042488E+04 -1.337427E-02
         2   9  2.681512E+06 -1.361383E+02  2.729686E+04  6.562253E+02 -4.024237E+03 -4.236123E-03
         2  10  2.681497E+06  5.892351E+03  4.149266E+04  2.255764E+03 -7.595226E-10 -3.253154E-10
         2  11  2.679853E+06  1.533598E+01  2.899058E+04  7.997718E+02  5.929061E-10 -3.122237E-10
         2  12  2.681512E+06 -1.361426E+02  2.729683E+04 -6.562253E+02  2.888309E-10  5.091464E-11
         2  13  2.681497E+06  5.892341E+03  4.149265E+04 -1.368287E-09 -1.952788E-10 -3.265601E-10
         2  14  2.679853E+06  1.533478E+01  2.899058E+04 -2.545274E-09  1.186297E-10 -1.348906E-10
         2  15  2.681512E+06 -1.361434E+02  2.729683E+04 -1.043814E-09  3.600034E-10  4.673514E-11
         2  16  2.681497E+06  5.892351E+03  4.149266E+04 -2.255764E+03  2.710314E-10 -5.642175E-10
         2  17  2.679853E+06  1.533598E+01  2.899058E+04 -7.997718E+02 -6.787293E-10 -5.123418E-11
         2  18  2.681512E+06 -1.361426E+02  2.729683E+04  6.562253E+02  1.591226E-10  2.776105E-10
         2  19  2.681498E+06  5.892516E+03  4.149381E+04  2.255764E+03 -2.487409E+04 -9.000641E-02
         2  20  2.679853E+06  1.536500E+01  2.899079E+04  7.997718E+02 -1.042488E+04 -1.337427E-02
         2  21  2.681512E+06 -1.361383E+02  2.729686E+04 -6.562253E+02  4.024237E+03 -4.236122E-03
         2  22  2.681498E+06  5.892506E+03  4.149381E+04 -2.918007E-09 -2.487409E+04 -3.916996E-10
         2  23  2.679853E+06  1.536381E+01  2.899079E+04 -3.257910E-10 -1.042488E+04  9.877185E-11
         2  24  2.681512E+06 -1.361391E+02  2.729686E+04 -1.768014E-09  4.024237E+03  4.931166E-10
         2  25  2.681498E+06  5.892516E+03  4.149381E+04 -2.255764E+03 -2.487409E+04  9.000641E-02
         2  26  2.679853E+06  1.536500E+01  2.899079E+04 -7.997718E+02 -1.042488E+04  1.337427E-02
         2  27  2.681512E+06 -1.361383E+02  2.729686E+04  6.562253E+02  4.024237E+03  4.236123E-03
         3   1  2.681913E+06 -4.805164E+02  2.951738E+04  1.957357E+03 -9.050754E+03 -2.841755E-02
         3   2  2.679341E+06  2.396785E+02  4.119720E+04 -8.487172E+02 -2.961655E+04  4.032100E-02
         3   3  2.681878E+06  1.073455E+04  6.866911E+04 -3.654720E+03 -5.018247E+04  2.941977E-01
         3   4  2.681913E+06 -4.805236E+02  2.951738E+04 -1.849786E-09 -9.050754E+03 -3.420134E-10
         3   5  2.679341E+06  2.396771E+02  4.119720E+04  2.685134E-10 -2.961655E+04 -2.545667E-10
         3   6  2.681878E+06  1.073453E+04  6.866910E+04 -9.824023E-10 -5.018247E+04  1.163206E-10
         3   7  2.681913E+06 -4.805164E+02  2.951738E+04 -1.957357E+03 -9.050754E+03  2.841755E-02
         3   8  2.679341E+06  2.396785E+02  4.119720E+04  8.487172E+02 -2.961655E+04 -4.032100E-02
         3   9  2.681878E+06  1.073455E+04  6.866911E+04  3.654720E+03 -5.018247E+04 -2.941977E-01
         3  10  2.681913E+06 -4.805383E+02  2.951722E+04  1.957357E+03  1.504374E-12 -1.331538E-10
         3  11  2.679340E+06  2.394442E+02  4.119556E+04 -8.487172E+02  2.044874E-10 -1.155674E-10
         3  12  2.681875E+06  1.073388E+04  6.866440E+04 -3.654720E+03 -3.497501E-10  2.496019E-12
         3  13  2.681913E+06 -4.805455E+02  2.951722E+04 -1.344455E-09 -6.331063E-10  4.755314E-11
         3  14  2.679340E+06  2.394429E+02  4.119556E+04 -1.361316E-09 -8.086276E-10 -1.260792E-10
         3  15  2.681875E+06  1.073386E+04  6.866439E+04  5.169466E-10  3.032765E-10  3.786317E-12
         3  16  2.681913E+06 -4.805383E+02  2.951722E+04 -1.957357E+03  6.693702E-10  2.093758E-10
         3  17  2.679340E+06  2.394442E+02  4.119556E+04  8.487172E+02 -9.377434E-10  1.584705E-10
         3  18  2.681875E+06  1.073388E+04  6.866440E+04  3.654720E+03  8.070445E-10 -1.973361E-11
         3  19  2.681913E+06 -4.805164E+02  2.951738E+04  1.957357E+03  9.050754E+03  2.841755E-02
         3  20  2.679341E+06  2.396785E+02  4.119720E+04 -8.487172E+02  2.961655E+04 -4.032100E-02
         3  21  2.681878E+06  1.073455E+04  6.866911E+04 -3.654720E+03  5.018247E+04 -2.941977E-01
         3  22  2.681913E+06 -4.805236E+02  2.951738E+04 -3.083898E-09  9.050754E+03  4.056317E-10
         3  23  2.679341E+06  2.396771E+02  4.119720E+04 -2.978488E-09  2.961655E+04  1.299529E-10
         3  24  2.681878E+06  1.073453E+04  6.866910E+04 -9.316660E-10  5.018247E+04 -1.003261E-10
         3  25  2.681913E+06 -4.805164E+02  2.951738E+04 -1.957357E+03  9.050754E+03 -2.841755E-02
         3  26  2.679341E+06  2.396785E+02  4.119720E+04  8.487172E+02  2.961655E+04  4.032100E-02
         3  27  2.681878E+06  1.073455E+04  6.866911E+04  3.654720E+03  5.018247E+04  2.941977E-01
         4   1  2.695054E+06 -7.388195E+03  8.649951E+04  3.266767E+04 -6.208034E+04 -3.253095E+00
         4   2  2.662788E+06  2.489822E+04  1.496748E+05 -5.881914E+04 -1.404956E+05  1.325654E+01
         4   3  2.694715E+06  2.734633E+05  3.178273E+05 -1.503148E+05 -2.189115E+05  5.278489E+01
         4   4  2.695053E+06 -7.390192E+03  8.649922E+04 -6.376427E-09 -6.208034E+04  1.389240E-10
         4   5  2.662784E+06  2.489174E+04  1.496738E+05 -1.203404E-09 -1.404956E+05 -7.290767E-11
         4   6  2.694691E+06  2.734210E+05  3.178212E+05 -6.716724E-10 -2.189114E+05  1.485481E-11
         4   7  2.695054E+06 -7.388195E+03  8.649951E+04 -3.266767E+04 -6.208034E+04  3.253095E+00
         4   8  2.662788E+06  2.489822E+04  1.496748E+05  5.881914E+04 -1.404956E+05 -1.325654E+01
         4   9  2.694715E+06  2.734633E+05  3.178273E+05  1.503148E+05 -2.189115E+05 -5.278489E+01
         4  10  2.695050E+06 -7.389224E+03  8.649229E+04  3.266767E+04  3.872442E-10 -8.664925E-11
         4  11  2.662767E+06  2.489295E+04  1.496378E+05 -5.881914E+04  2.024832E-10 -7.886420E-11
         4  12  2.694663E+06  2.734505E+05  3.177376E+05 -1.503148E+05 -6.174999E-10 -2.943338E-11
         4  13  2.695049E+06 -7.391221E+03  8.649201E+04 -1.550277E-09  1.196873E-09  3.296153E-12
         4  14  2.662763E+06  2.488647E+04  1.496369E+05 -1.194981E-09 -1.186572E-10 -6.221268E-11
         4  15  2.694639E+06  2.734082E+05  3.177316E+05  3.308143E-10 -7.400394E-10 -2.768646E-11
         4  16  2.695050E+06 -7.389224E+03  8.649229E+04 -3.266767E+04  3.378351E-10 -1.586702E-11
         4  17  2.662767E+06  2.489295E+04  1.496378E+05  5.881914E+04  9.416748E-11  8.465847E-11
         4  18  2.694663E+06  2.734505E+05  3.177376E+05  1.503148E+05  9.990892E-11 -1.117604E-11
         4  19  2.695054E+06 -7.388195E+03  8.649951E+04  3.266767E+04  6.208034E+04  3.253095E+00
         4  20  2.662788E+06  2.489822E+04  1.496748E+05 -5.881914E+04  1.404956E+05 -1.325654E+01
         4  21  2.694715E+06  2.734633E+05  3.178273E+05 -1.503148E+05  2.189115E+05 -5.278489E+01
         4  22  2.695053E+06 -7.390192E+03  8.649922E+04 -3.167430E-09  6.208034E+04 -1.315612E-10
         4  23  2.662784E+06  2.489174E+04  1.496738E+05  1.757096E-09  1.404956E+05 -5.948071E-11
         4  24  2.694691E+06  2.734210E+05  3.178212E+05  2.347160E-12  2.189114E+05 -8.260985E-11
         4  25  2.695054E+06 -7.388195E+03  8.649951E+04 -3.266767E+04  6.208034E+04 -3.253095E+00
         4  26  2.662788E+06  2.489822E+04  1.496748E+05  5.881914E+04  1.404956E+05  1.325654E+01
         4  27  2.694715E+06  2.734633E+05  3.178273E+05  1.503148E+05  2.189115E+05  5.278489E+01
         5   1 -9.728278E+05 -2.431439E+06 -9.869966E+05  6.208568E+05 -3.677876E+04 -3.195281E+05
         5   2 -5.906469E+05 -1.750856E+06 -6.246947E+05  4.447151E+05 -1.090964E+05 -1.577332E+05
         5   3 -4.045464E+05 -1.139372E+06 -4.169102E+05  4.684822E+05 -9.977234E+04  4.214506E+03
         5   4 -2.276921E+05  5.692054E+05 -2.644206E+05  4.986511E+05 -3.656351E+04 -1.843917E+05
         5   5 -2.072564E+04  5.957659E+05 -1.226339E+05  3.985213E+05 -1.089946E+05 -1.199712E+05
         5   6  7.536113E+03  5.700748E+05 -6.729410E+04  4.983431E+05 -9.988342E+04 -5.558194E+04
         5   7  5.168544E+05  3.578176E+06  4.575908E+05  3.758457E+05 -3.640241E+04 -4.860091E+04
         5   8  5.488452E+05  2.947585E+06  3.791143E+05  3.521466E+05 -1.088987E+05 -8.206765E+04
         5   9  4.194404E+05  2.282310E+06  2.821811E+05  5.282852E+05 -1.000001E+05 -1.155401E+05
         5  10 -9.728568E+05 -2.431549E+06 -9.871917E+05  6.208473E+05  4.396302E-10 -1.389817E-10
         5  11 -5.906664E+05 -1.750886E+06 -6.247639E+05  4.447012E+05  1.147928E-09 -2.677505E-10
         5  12 -4.045571E+05 -1.139375E+06 -4.169289E+05  4.684826E+05 -5.551745E-10 -1.124790E-10
         5  13 -2.277026E+05  5.691686E+05 -2.644870E+05  4.986457E+05 -5.653140E-10  1.661429E-11
         5  14 -2.074225E+04  5.957472E+05 -1.226832E+05  3.985108E+05  4.180022E-10  2.060472E-11
         5  15  7.524574E+03  5.700689E+05 -6.731864E+04  4.983386E+05  8.951261E-10 -6.432796E-11
         5  16  5.168524E+05  3.578173E+06  4.575839E+05  3.758443E+05 -2.944578E-10  2.136885E-10
         5  17  5.488307E+05  2.947574E+06  3.790794E+05  3.521394E+05  8.042840E-10  3.314228E-10
         5  18  4.194261E+05  2.282293E+06  2.821373E+05  5.282760E+05  3.992589E-10  2.401418E-11
         5  19 -9.728278E+05 -2.431439E+06 -9.869966E+05  6.208568E+05  3.677876E+04  3.195281E+05
         5  20 -5.906469E+05 -1.750856E+06 -6.246947E+05  4.447151E+05  1.090964E+05  1.577332E+05
         5  21 -4.045464E+05 -1.139372E+06 -4.169102E+05  4.684822E+05  9.977234E+04 -4.214506E+03
         5  22 -2.276921E+05  5.692054E+05 -2.644206E+05  4.986511E+05  3.656351E+04  1.843917E+05
         5  23 -2.072564E+04  5.957659E+05 -1.226339E+05  3.985213E+05  1.089946E+05  1.199712E+05
         5  24  7.536113E+03  5.700748E+05 -6.729410E+04  4.983431E+05  9.988342E+04  5.558194E+04
         5  25  5.168544E+05  3.578176E+06  4.575908E+05  3.758457E+05  3.640241E+04  4.860091E+04
         5  26  5.488452E+05  2.947585E+06  3.791143E+05  3.521466E+05  1.088987E+05  8.206765E+04
         5  27  4.194404E+05  2.282310E+06  2.821811E+05  5.282852E+05  1.000001E+05  1.155401E+05
         6   1 -3.071600E+05 -6.626570E+05 -3.056423E+05  4.997582E+05 -7.194084E+04 -5.624697E+03
         6   2 -1.425364E+05 -1.592065E+04 -1.439113E+05  3.969098E+05 -3.679662E+04  7.774418E+03
         6   3  1.626355E+04  6.272457E+05  7.391467E+03  4.979535E+05  1.330322E+01  2.116191E+04
         6   4 -7.418123E+03  5.811777E+05 -5.083627E+04  4.992778E+05 -7.203002E+04 -4.678414E+04
         6   5  1.419534E+03  5.830941E+05 -2.296071E+04  3.973217E+05 -3.690220E+04 -3.537540E+04
         6   6  4.814078E+03  5.814103E+05 -4.093177E+03  4.992468E+05 -1.106581E+02 -2.399175E+04
         6   7  2.922276E+05  1.826486E+06  2.038939E+05  4.987950E+05 -7.211902E+04 -8.802455E+04
         6   8  1.453543E+05  1.182455E+06  9.797835E+04  3.977336E+05 -3.700778E+04 -7.856604E+04
         6   9 -6.634454E+03  5.355811E+05 -1.557032E+04  5.005401E+05 -2.348129E+02 -6.914208E+04
         6  10 -3.071656E+05 -6.626584E+05 -3.056521E+05  4.997579E+05 -2.016822E-10  6.527336E-10
         6  11 -1.425379E+05 -1.592108E+04 -1.439139E+05  3.969100E+05  5.476646E-10  8.150806E-10
         6  12  1.626343E+04  6.272452E+05  7.390626E+03  4.979535E+05  9.809339E-10  7.928624E-10
         6  13 -7.424279E+03  5.811739E+05 -5.085012E+04  4.992751E+05  7.111653E-10 -2.092375E-11
         6  14  1.417737E+03  5.830924E+05 -2.296561E+04  3.973206E+05 -4.855257E-10 -1.048403E-10
         6  15  4.813924E+03  5.814097E+05 -4.094258E+03  4.992468E+05  4.281478E-10 -1.069094E-11
         6  16  2.922199E+05  1.826476E+06  2.038696E+05  4.987899E+05  6.033240E-10 -7.254752E-10
         6  17  1.453512E+05  1.182448E+06  9.796421E+04  3.977313E+05  6.223402E-11 -9.220768E-10
         6  18 -6.635736E+03  5.355760E+05 -1.557930E+04  5.005401E+05  4.295056E-10 -8.447480E-10
         6  19 -3.071600E+05 -6.626570E+05 -3.056423E+05  4.997582E+05  7.194084E+04  5.624697E+03
         6  20 -1.425364E+05 -1.592065E+04 -1.439113E+05  3.969098E+05  3.679662E+04 -7.774418E+03
         6  21  1.626355E+04  6.272457E+05  7.391467E+03  4.979535E+05 -1.330322E+01 -2.116191E+04
         6  22 -7.418123E+03  5.811777E+05 -5.083627E+04  4.992778E+05  7.203002E+04  4.678414E+04
         6  23  1.419534E+03  5.830941E+05 -2.296071E+04  3.973217E+05  3.690220E+04  3.537540E+04
         6  24  4.814078E+03  5.814103E+05 -4.093177E+03  4.992468E+05  1.106581E+02  2.399175E+04
         6  25  2.922276E+05  1.826486E+06  2.038939E+05  4.987950E+05  7.211902E+04  8.802455E+04
         6  26  1.453543E+05  1.182455E+06  9.797835E+04  3.977336E+05  3.700778E+04  7.856604E+04
         6  27 -6.634454E+03  5.355811E+05 -1.557032E+04  5.005401E+05  2.348129E+02  6.914208E+04
         7   1  1.241077E+05  1.095771E+06  1.105334E+05  4.929722E+05  2.683363E+04  3.249277E+04
         7   2  2.862715E+05  1.730698E+06  2.722808E+05  4.102916E+05  4.792332E+04 -4.065876E+04
         7   3  5.002379E+05  2.387964E+06  4.943346E+05  5.290139E+05  1.800380E+04 -1.138120E+05
         7   4  6.794548E+02  5.846888E+05  3.787044E+03  4.987243E+05  2.668366E+04 -2.372195E+04
         7   5  6.114181E+03  5.787575E+05  2.218980E+04  3.979655E+05  4.794252E+04 -3.552126E+04
         7   6  5.279938E+04  5.842103E+05  5.841036E+04  4.986159E+05  1.815339E+04 -4.724551E+04
         7   7 -1.227636E+05  7.386029E+04 -1.029619E+05  5.044713E+05  2.653256E+04 -7.989122E+04
         7   8 -2.741304E+05 -5.719407E+05 -2.279802E+05  3.856615E+05  4.796155E+04 -3.039309E+04
         7   9 -3.948713E+05 -1.216568E+06 -3.777302E+05  4.683034E+05  1.829676E+04  1.912892E+04
         7  10  1.241066E+05  1.095770E+06  1.105301E+05  4.929715E+05  9.912603E-10  1.439655E-10
         7  11  2.862685E+05  1.730695E+06  2.722734E+05  4.102931E+05  6.194865E-10 -2.180486E-10
         7  12  5.002341E+05  2.387950E+06  4.943097E+05  5.290156E+05 -3.297093E-11 -5.569841E-10
         7  13  6.785383E+02  5.846880E+05  3.784647E+03  4.987248E+05  5.411294E-10 -7.282883E-11
         7  14  6.111372E+03  5.787555E+05  2.218311E+04  3.979669E+05 -1.129341E-11 -1.772801E-11
         7  15  5.279843E+04  5.842078E+05  5.840555E+04  4.986165E+05  5.521468E-10 -1.049958E-11
         7  16 -1.227661E+05  7.385325E+04 -1.029752E+05  5.044730E+05  8.924416E-10 -2.331621E-10
         7  17 -2.741331E+05 -5.719423E+05 -2.279863E+05  3.856627E+05 -8.648107E-11  2.187776E-10
         7  18 -3.948718E+05 -1.216568E+06 -3.777315E+05  4.683032E+05  2.440613E-10  5.010657E-10
         7  19  1.241077E+05  1.095771E+06  1.105334E+05  4.929722E+05 -2.683363E+04 -3.249277E+04
         7  20  2.862715E+05  1.730698E+06  2.722808E+05  4.102916E+05 -4.792332E+04  4.065876E+04
         7  21  5.002379E+05  2.387964E+06  4.943346E+05  5.290139E+05 -1.800380E+04  1.138120E+05
         7  22  6.794548E+02  5.846888E+05  3.787044E+03  4.987243E+05 -2.668366E+04  2.372195E+04
         7  23  6.114181E+03  5.787575E+05  2.218980E+04  3.979655E+05 -4.794252E+04  3.552126E+04
         7  24  5.279938E+04  5.842103E+05  5.841036E+04  4.986159E+05 -1.815339E+04  4.724551E+04
         7  25 -1.227636E+05  7.386029E+04 -1.029619E+05  5.044713E+05 -2.653256E+04  7.989122E+04
         7  26 -2.741304E+05 -5.719407E+05 -2.279802E+05  3.856615E+05 -4.796155E+04  3.039309E+04
         7  27 -3.948713E+05 -1.216568E+06 -3.777302E+05  4.683034E+05 -1.829676E+04 -1.912892E+04
         8   1  8.789385E+05  3.650068E+05 -1.222916E+05  7.212859E+05  6.759933E+03  1.987565E+04
         8   2  9.418585E+05  3.705255E+05 -1.212397E+05  7.882617E+05 -4.016339E+03  4.377075E+04
         8   3  1.067130E+06  3.843391E+05 -1.096201E+05  8.247548E+05 -7.370113E+02  4.892322E+04
         8   4  1.569781E+06  7.854914E+05  9.073185E+04  1.031052E+06  4.267944E+04  4.680094E+04
         8   5  1.521821E+06  7.532901E+05  4.290538E+04  1.065553E+06  9.357729E+03  5.378797E+04
         8   6  1.541051E+06  7.342297E+05  2.515402E+04  1.069574E+06 -9.916470E+03  4.204364E+04
         8   7  2.261126E+06  1.206144E+06  3.037051E+05  1.341173E+06  7.865337E+04  7.375930E+04
         8   8  2.102150E+06  1.136211E+06  2.070162E+05  1.343125E+06  2.274863E+04  6.381669E+04
         8   9  2.015221E+06  1.084263E+06  1.599056E+05  1.314609E+06 -1.910534E+04  3.515657E+04
         8  10  8.789383E+05  3.650064E+05 -1.222924E+05  7.212858E+05 -1.282068E-09 -4.613750E-10
         8  11  9.418580E+05  3.705234E+05 -1.212434E+05  7.882618E+05 -1.325441E-09 -7.733307E-11
         8  12  1.067129E+06  3.843365E+05 -1.096246E+05  8.247548E+05  5.465751E-10 -1.379971E-09
         8  13  1.569779E+06  7.854886E+05  9.072434E+04  1.031051E+06 -7.070152E-10  3.813875E-10
         8  14  1.521821E+06  7.532870E+05  4.289978E+04  1.065552E+06 -4.640859E-10  5.997403E-10
         8  15  1.541050E+06  7.342278E+05  2.515051E+04  1.069574E+06 -3.920320E-10  1.721328E-10
         8  16  2.261118E+06  1.206136E+06  3.036833E+05  1.341168E+06  3.172131E-10  9.408317E-10
         8  17  2.102148E+06  1.136207E+06  2.070076E+05  1.343124E+06  4.594921E-10  1.353357E-09
         8  18  2.015220E+06  1.084262E+06  1.599026E+05  1.314610E+06 -2.764177E-10  1.796541E-09
         8  19  8.789385E+05  3.650068E+05 -1.222916E+05  7.212859E+05 -6.759933E+03 -1.987565E+04
         8  20  9.418585E+05  3.705255E+05 -1.212397E+05  7.882617E+05  4.016339E+03 -4.377075E+04
         8  21  1.067130E+06  3.843391E+05 -1.096201E+05  8.247548E+05  7.370113E+02 -4.892322E+04
         8  22  1.569781E+06  7.854914E+05  9.073185E+04  1.031052E+06 -4.267944E+04 -4.680094E+04
         8  23  1.521821E+06  7.532901E+05  4.290538E+04  1.065553E+06 -9.357729E+03 -5.378797E+04
         8  24  1.541051E+06  7.342297E+05  2.515402E+04  1.069574E+06  9.916470E+03 -4.204364E+04
         8  25  2.261126E+06  1.206144E+06  3.037051E+05  1.341173E+06 -7.865337E+04 -7.375930E+04
         8  26  2.102150E+06  1.136211E+06  2.070162E+05  1.343125E+06 -2.274863E+04 -6.381669E+04
         8  27  2.015221E+06  1.084263E+06  1.599056E+05  1.314609E+06  1.910534E+04 -3.515657E+04
         9   1  1.115951E+06  4.378929E+05 -9.824407E+04  8.530299E+05 -4.902261E+03  3.937081E+04
         9   2  1.179571E+06  5.095537E+05 -8.198025E+04  8.995983E+05 -5.486685E+03  3.198937E+04
         9   3  1.278824E+06  5.493987E+05 -6.190187E+04  9.356695E+05 -5.309504E+03  2.358449E+04
         9   4  1.540691E+06  7.360363E+05  2.023552E+04  1.065221E+06 -9.629216E+03  3.582750E+04
         9   5  1.522186E+06  7.507924E+05  1.290414E+04  1.071253E+06 -1.144708E+04  2.752430E+04
         9   6  1.539567E+06  7.339956E+05  1.045059E+04  1.066782E+06 -1.250291E+04  1.819864E+04
         9   7  1.965637E+06  1.034285E+06  1.386993E+05  1.277579E+06 -1.436059E+04  3.228090E+04
         9   8  1.864932E+06  9.920978E+05  1.077774E+05  1.243015E+06 -1.741190E+04  2.305593E+04
         9   9  1.800382E+06  9.186293E+05  8.279561E+04  1.197955E+06 -1.970030E+04  1.280980E+04
         9  10  1.115950E+06  4.378912E+05 -9.824703E+04  8.530301E+05 -1.612094E-08 -1.448102E-08
         9  11  1.179571E+06  5.095526E+05 -8.198224E+04  8.995984E+05 -6.258454E-09 -6.962368E-09
         9  12  1.278824E+06  5.493981E+05 -6.190297E+04  9.356696E+05  1.049917E-08  8.615817E-09
         9  13  1.540691E+06  7.360349E+05  2.023294E+04  1.065221E+06 -3.019085E-09 -2.870593E-09
         9  14  1.522186E+06  7.507916E+05  1.290247E+04  1.071253E+06 -7.462462E-09 -7.061087E-09
         9  15  1.539567E+06  7.339952E+05  1.044968E+04  1.066782E+06 -3.310078E-09 -2.983510E-09
         9  16  1.965637E+06  1.034284E+06  1.386970E+05  1.277579E+06  9.953904E-09  8.693580E-09
         9  17  1.864931E+06  9.920972E+05  1.077758E+05  1.243015E+06 -7.203988E-09 -7.162983E-09
         9  18  1.800382E+06  9.186290E+05  8.279458E+04  1.197955E+06 -1.649923E-08 -1.449572E-08
         9  19  1.115951E+06  4.378929E+05 -9.824407E+04  8.530299E+05  4.902261E+03 -3.937081E+04
         9  20  1.179571E+06  5.095537E+05 -8.198025E+04  8.995983E+05  5.486685E+03 -3.198937E+04
         9  21  1.278824E+06  5.493987E+05 -6.190187E+04  9.356695E+05  5.309504E+03 -2.358449E+04
         9  22  1.540691E+06  7.360363E+05  2.023552E+04  1.065221E+06  9.629216E+03 -3.582750E+04
         9  23  1.522186E+06  7.507924E+05  1.290414E+04  1.071253E+06  1.144708E+04 -2.752430E+04
         9  24  1.539567E+06  7.339956E+05  1.045059E+04  1.066782E+06  1.250291E+04 -1.819864E+04
         9  25  1.965637E+06  1.034285E+06  1.386993E+05  1.277579E+06  1.436059E+04 -3.228090E+04
         9  26  1.864932E+06  9.920978E+05  1.077774E+05  1.243015E+06  1.741190E+04 -2.305593E+04
         9  27  1.800382E+06  9.186293E+05  8.279561E+04  1.197955E+06  1.970030E+04 -1.280980E+04
        10   1  1.336385E+06  5.911623E+05 -4.530193E+04  9.648158E+05 -4.467920E+03  1.881092E+04
        10   2  1.399724E+06  6.649195E+05 -2.073964E+04  1.010250E+06 -5.258102E+03  9.201793E+03
        10   3  1.497671E+06  7.057022E+05  8.130977E+03  1.045960E+06 -6.039544E+03 -4.228915E+02
        10   4  1.539527E+06  7.341093E+05  1.047922E+04  1.066638E+06 -1.141169E+04  1.361292E+04
        10   5  1.522275E+06  7.506856E+05  1.295305E+04  1.071439E+06 -1.222120E+04  3.990128E+03
        10   6  1.539629E+06  7.342873E+05  1.975105E+04  1.066510E+06 -1.302114E+04 -5.647567E+03
        10   7  1.742715E+06  8.770800E+05  6.625676E+04  1.168498E+06 -1.835851E+04  8.412637E+03
        10   8  1.644845E+06  8.364607E+05  4.664487E+04  1.132642E+06 -1.918619E+04 -1.222942E+03
        10   9  1.581590E+06  7.628738E+05  3.137141E+04  1.087062E+06 -2.000346E+04 -1.087276E+04
        10  10  1.336385E+06  5.911619E+05 -4.530264E+04  9.648159E+05  5.157317E-10  1.773695E-09
        10  11  1.399724E+06  6.649194E+05 -2.073985E+04  1.010250E+06  2.912401E-11  8.673704E-10
        10  12  1.497671E+06  7.057022E+05  8.130909E+03  1.045960E+06  5.372396E-11  8.165641E-10
        10  13  1.539527E+06  7.341091E+05  1.047862E+04  1.066638E+06 -6.006089E-10  7.958752E-11
        10  14  1.522275E+06  7.506855E+05  1.295274E+04  1.071439E+06 -1.528047E-09  3.747580E-10
        10  15  1.539629E+06  7.342873E+05  1.975067E+04  1.066510E+06 -1.428353E-09  6.713117E-10
        10  16  1.742714E+06  8.770799E+05  6.625599E+04  1.168498E+06 -2.326992E-10 -1.758150E-09
        10  17  1.644845E+06  8.364606E+05  4.664418E+04  1.132642E+06 -7.498171E-10  8.993212E-11
        10  18  1.581589E+06  7.628736E+05  3.137044E+04  1.087061E+06 -1.602571E-09  8.229637E-10
        10  19  1.336385E+06  5.911623E+05 -4.530193E+04  9.648158E+05  4.467920E+03 -1.881092E+04
        10  20  1.399724E+06  6.649195E+05 -2.073964E+04  1.010250E+06  5.258102E+03 -9.201793E+03
        10  21  1.497671E+06  7.057022E+05  8.130977E+03  1.045960E+06  6.039544E+03  4.228915E+02
        10  22  1.539527E+06  7.341093E+05  1.047922E+04  1.066638E+06  1.141169E+04 -1.361292E+04
        10  23  1.522275E+06  7.506856E+05  1.295305E+04  1.071439E+06  1.222120E+04 -3.990128E+03
        10  24  1.539629E+06  7.342873E+05  1.975105E+04  1.066510E+06  1.302114E+04  5.647567E+03
        10  25  1.742715E+06  8.770800E+05  6.625676E+04  1.168498E+06  1.835851E+04 -8.412637E+03
        10  26  1.644845E+06  8.364607E+05  4.664487E+04  1.132642E+06  1.918619E+04  1.222942E+03
        10  27  1.581590E+06  7.628738E+05  3.137141E+04  1.087062E+06  2.000346E+04  1.087276E+04
        11   1  1.554116E+06  7.483353E+05  3.002425E+04  1.076457E+06 -6.507086E+03 -6.137780E+03
        11   2  1.619787E+06  8.186319E+05  6.962300E+04  1.119164E+06 -2.009570E+04 -2.503397E+04
        11   3  1.726794E+06  8.644319E+05  1.264248E+05  1.149351E+06 -3.417463E+04 -4.328057E+04
        11   4  1.539943E+06  7.340925E+05  2.511463E+04  1.067417E+06 -1.362970E+04 -1.146789E+04
        11   5  1.521696E+06  7.506137E+05  4.247456E+04  1.070527E+06 -2.643089E+04 -2.977552E+04
        11   6  1.544614E+06  7.424689E+05  7.636227E+04  1.061113E+06 -3.971937E+04 -4.743145E+04
        11   7  1.525771E+06  7.198502E+05  2.020534E+04  1.058378E+06 -2.075200E+04 -1.679768E+04
        11   8  1.423617E+06  6.826013E+05  1.532565E+04  1.021899E+06 -3.276469E+04 -3.451604E+04
        11   9  1.362470E+06  6.205226E+05  2.629682E+04  9.729034E+05 -4.526192E+04 -5.158080E+04
        11  10  1.554116E+06  7.483352E+05  3.002410E+04  1.076457E+06  8.637818E-10  9.097237E-10
        11  11  1.619786E+06  8.186311E+05  6.962107E+04  1.119164E+06  3.117660E-10  8.554190E-10
        11  12  1.726793E+06  8.644296E+05  1.264191E+05  1.149350E+06  4.272816E-10  6.592396E-10
        11  13  1.539943E+06  7.340923E+05  2.511403E+04  1.067417E+06 -1.566868E-09  8.862569E-10
        11  14  1.521695E+06  7.506126E+05  4.247159E+04  1.070527E+06 -5.758058E-10  4.800247E-10
        11  15  1.544612E+06  7.424661E+05  7.635510E+04  1.061111E+06 -8.921732E-11  3.772771E-10
        11  16  1.525770E+06  7.198498E+05  2.020401E+04  1.058377E+06 -1.644413E-09  5.975354E-10
        11  17  1.423616E+06  6.825998E+05  1.532141E+04  1.021898E+06 -2.062182E-10  3.053678E-10
        11  18  1.362468E+06  6.205192E+05  2.628799E+04  9.729015E+05 -2.279599E-10 -1.576937E-10
        11  19  1.554116E+06  7.483353E+05  3.002425E+04  1.076457E+06  6.507086E+03  6.137780E+03
        11  20  1.619787E+06  8.186319E+05  6.962300E+04  1.119164E+06  2.009570E+04  2.503397E+04
        11  21  1.726794E+06  8.644319E+05  1.264248E+05  1.149351E+06  3.417463E+04  4.328057E+04
        11  22  1.539943E+06  7.340925E+05  2.511463E+04  1.067417E+06  1.362970E+04  1.146789E+04
        11  23  1.521696E+06  7.506137E+05  4.247456E+04  1.070527E+06  2.643089E+04  2.977552E+04
        11  24  1.544614E+06  7.424689E+05  7.636227E+04  1.061113E+06  3.971937E+04  4.743145E+04
        11  25  1.525771E+06  7.198502E+05  2.020534E+04  1.058378E+06  2.075200E+04  1.679768E+04
        11  26  1.423617E+06  6.826013E+05  1.532565E+04  1.021899E+06  3.276469E+04  3.451604E+04
        11  27  1.362470E+06  6.205226E+05  2.629682E+04  9.729034E+05  4.526192E+04  5.158080E+04
        12   1  1.747266E+06  9.379948E+05  1.640223E+05  1.207854E+06 -3.911558E+04 -5.297804E+04
        12   2  1.901966E+06  9.210070E+05  2.644458E+05  1.187211E+06 -1.246141E+05 -1.185723E+05
        12   3  2.229885E+06  1.060218E+06  4.979211E+05  1.072721E+06 -2.190196E+05 -1.723132E+05
        12   4  1.546755E+06  7.346606E+05  9.766581E+04  1.078512E+06 -4.746929E+04 -5.922705E+04
        12   5  1.519691E+06  7.616879E+05  1.715661E+05  1.047707E+06 -1.186555E+05 -1.141355E+05