
 stresses (elem, integ.pnt.,sxx,syy,szz,sxy,sxz,syz) for set ELALL and time  0.1000000E+01

         1   1  2.450950E+06  8.866428E+06  2.319987E+06 -1.811838E+06  1.091596E+05  9.160647E+05
         1   2  1.970673E+06  7.536544E+06  1.544497E+06 -1.677012E+06  3.687110E+05  4.232531E+05
         1   3  1.623602E+06  6.308022E+06  1.121120E+06 -1.737153E+06  4.326364E+05 -6.818534E+04
         1   4  1.149528E+05 -6.590333E+05  1.191895E+05 -1.710478E+06  1.120021E+05  7.860730E+04
         1   5  4.046856E+04 -6.661202E+05  6.363127E+04 -1.613220E+06  3.707052E+05  4.780868E+04
         1   6  2.047403E+04 -6.522520E+05  4.222349E+04 -1.710894E+06  4.326463E+05  1.722576E+04
         1   7 -2.226991E+06 -1.009986E+07 -2.085060E+06 -1.610502E+06  1.146095E+05 -7.462404E+05
         1   8 -1.893407E+06 -8.803459E+06 -1.419358E+06 -1.550149E+06  3.726427E+05 -3.228597E+05
         1   9 -1.585007E+06 -7.564425E+06 -1.037771E+06 -1.684820E+06  4.326632E+05  1.017220E+05
         1  10  2.450715E+06  8.865534E+06  2.318407E+06 -1.811918E+06 -2.885099E-09  2.491510E-08
         1  11  1.970479E+06  7.536316E+06  1.543907E+06 -1.677137E+06  1.315017E-08 -8.020226E-09
         1  12  1.623400E+06  6.307967E+06  1.120760E+06 -1.737130E+06  1.043876E-08 -4.183343E-08
         1  13  1.149376E+05 -6.590434E+05  1.191542E+05 -1.710486E+06 -4.972104E-09 -7.591852E-11
         1  14  4.032036E+04 -6.661596E+05  6.336860E+04 -1.613235E+06 -1.446093E-08  7.623249E-11
         1  15  2.027299E+04 -6.523026E+05  4.187120E+04 -1.710901E+06 -1.034645E-08  2.925853E-11
         1  16 -2.227157E+06 -1.010047E+07 -2.086147E+06 -1.610433E+06  4.796443E-09 -2.469216E-08
         1  17 -1.893584E+06 -8.803609E+06 -1.419816E+06 -1.550052E+06  1.651079E-09  7.755634E-09
         1  18 -1.585211E+06 -7.564486E+06 -1.038143E+06 -1.684856E+06  4.357550E-09  4.138645E-08
         1  19  2.450950E+06  8.866428E+06  2.319987E+06 -1.811838E+06 -1.091596E+05 -9.160647E+05
         1  20  1.970673E+06  7.536544E+06  1.544497E+06 -1.677012E+06 -3.687110E+05 -4.232531E+05
         1  21  1.623602E+06  6.308022E+06  1.121120E+06 -1.737153E+06 -4.326364E+05  6.818534E+04
         1  22  1.149528E+05 -6.590333E+05  1.191895E+05 -1.710478E+06 -1.120021E+05 -7.860730E+04
         1  23  4.046856E+04 -6.661202E+05  6.363127E+04 -1.613220E+06 -3.707052E+05 -4.780868E+04
         1  24  2.047403E+04 -6.522520E+05  4.222349E+04 -1.710894E+06 -4.326463E+05 -1.722576E+04
         1  25 -2.226991E+06 -1.009986E+07 -2.085060E+06 -1.610502E+06 -1.146095E+05  7.462404E+05
         1  26 -1.893407E+06 -8.803459E+06 -1.419358E+06 -1.550149E+06 -3.726427E+05  3.228597E+05
         1  27 -1.585007E+06 -7.564425E+06 -1.037771E+06 -1.684820E+06 -4.326632E+05 -1.017220E+05
         2   1  1.432189E+06  5.499855E+06  9.613388E+05 -1.742903E+06  4.028282E+05 -8.659106E+04
         2   2  1.129216E+06  4.213375E+06  7.235239E+05 -1.626780E+06  3.490936E+05 -1.643477E+05
         2   3  8.515956E+05  2.944733E+06  5.423383E+05 -1.720152E+06  2.700772E+05 -2.422180E+05
         2   4  2.016730E+04 -6.536722E+05  3.727445E+04 -1.714154E+06  4.026500E+05  1.078346E+04
         2   5  2.034782E+04 -6.545768E+05  3.667411E+04 -1.609341E+06  3.483719E+05 -7.653788E+03
         2   6  3.576217E+04 -6.494675E+05  5.174062E+04 -1.714114E+06  2.687091E+05 -2.635412E+04
         2   7 -1.393640E+06 -6.769382E+06 -8.875103E+05 -1.685602E+06  4.024793E+05  1.072373E+05
         2   8 -1.089569E+06 -5.498578E+06 -6.504088E+05 -1.591981E+06  3.476548E+05  1.478712E+05
         2   9 -7.806087E+05 -4.230463E+06 -4.388175E+05 -1.708075E+06  2.673394E+05  1.883214E+05
         2  10  1.432013E+06  5.499804E+06  9.610203E+05 -1.742875E+06  5.938685E-09  4.756512E-08
         2  11  1.129079E+06  4.213313E+06  7.232452E+05 -1.626734E+06  6.491597E-09  6.706373E-09
         2  12  8.515019E+05  2.944651E+06  5.420924E+05 -1.720099E+06  1.957199E-09 -3.402025E-08
         2  13  1.999322E+04 -6.537158E+05  3.696960E+04 -1.714158E+06 -2.019620E-09  1.205108E-10
         2  14  2.021754E+04 -6.546094E+05  3.644605E+04 -1.609339E+06 -3.977390E-09  5.321465E-11
         2  15  3.568451E+04 -6.494876E+05  5.160377E+04 -1.714108E+06 -6.678013E-09  1.837164E-10
         2  16 -1.393818E+06 -6.769438E+06 -8.878369E+05 -1.685637E+06  3.347134E-09 -4.704043E-08
         2  17 -1.089705E+06 -5.498634E+06 -6.506779E+05 -1.592022E+06  5.426824E-09 -6.558697E-09
         2  18 -7.806953E+05 -4.230521E+06 -4.390195E+05 -1.708116E+06  5.931728E-09  3.418563E-08
         2  19  1.432189E+06  5.499855E+06  9.613388E+05 -1.742903E+06 -4.028282E+05  8.659106E+04
         2  20  1.129216E+06  4.213375E+06  7.235239E+05 -1.626780E+06 -3.490936E+05  1.643477E+05
         2  21  8.515956E+05  2.944733E+06  5.423383E+05 -1.720152E+06 -2.700772E+05  2.422180E+05
         2  22  2.016730E+04 -6.536722E+05  3.727445E+04 -1.714154E+06 -4.026500E+05 -1.078346E+04
         2  23  2.034782E+04 -6.545768E+05  3.667411E+04 -1.609341E+06 -3.483719E+05  7.653788E+03
         2  24  3.576217E+04 -6.494675E+05  5.174062E+04 -1.714114E+06 -2.687091E+05  2.635412E+04
         2  25 -1.393640E+06 -6.769382E+06 -8.875103E+05 -1.685602E+06 -4.024793E+05 -1.072373E+05
         2  26 -1.089569E+06 -5.498578E+06 -6.504088E+05 -1.591981E+06 -3.476548E+05 -1.478712E+05
         2  27 -7.806087E+05 -4.230463E+06 -4.388175E+05 -1.708075E+06 -2.673394E+05 -1.883214E+05
         3   1  6.783127E+05  2.157519E+06  4.412506E+05 -1.721639E+06  2.151878E+05 -2.526284E+05
         3   2  4.347167E+05  8.682703E+05  3.113971E+05 -1.542580E+06  1.225587E+05 -3.103984E+05
         3   3  2.800151E+05 -3.914189E+05  2.408266E+05 -1.574712E+06  2.990001E+04 -3.681469E+05
         3   4  4.337807E+04 -6.436897E+05  6.487259E+04 -1.714505E+06  2.136952E+05 -3.550269E+04
         3   5  9.117481E+04 -6.568790E+05  1.125143E+05 -1.608433E+06  1.210063E+05 -9.335835E+04
         3   6  2.279640E+05 -6.422959E+05  2.193529E+05 -1.713431E+06  2.830234E+04 -1.512927E+05
         3   7 -5.918683E+05 -3.436814E+06 -3.113985E+05 -1.707382E+06  2.122027E+05  1.806913E+05
         3   8 -2.524207E+05 -2.179537E+06 -8.620284E+04 -1.674110E+06  1.194052E+05  1.231747E+05
         3   9  1.760096E+05 -8.929626E+05  1.980683E+05 -1.852091E+06  2.660720E+04  6.547951E+04
         3  10  6.782461E+05  2.157439E+06  4.410447E+05 -1.721595E+06  3.199063E-09 -6.160811E-08
         3  11  4.346749E+05  8.681630E+05  3.111885E+05 -1.542549E+06  2.702175E-09 -4.015299E-09
         3  12  2.799778E+05 -3.915647E+05  2.405702E+05 -1.574704E+06  1.746349E-09  5.370148E-08
         3  13  4.332875E+04 -6.437032E+05  6.478454E+04 -1.714499E+06  2.554777E-09 -1.175101E-10
         3  14  9.115680E+04 -6.568922E+05  1.124705E+05 -1.608424E+06  4.621995E-09 -1.493118E-10
         3  15  2.279571E+05 -6.423207E+05  2.193084E+05 -1.713428E+06 -1.575256E-09 -1.227572E-10
         3  16 -5.919256E+05 -3.436862E+06 -3.115453E+05 -1.707413E+06  8.491908E-10  6.177038E-08
         3  17 -2.524401E+05 -2.179557E+06 -8.625842E+04 -1.674122E+06  1.725029E-09  3.664046E-09
         3  18  1.760076E+05 -8.929674E+05  1.980588E+05 -1.852092E+06  4.556452E-10 -5.355864E-08
         3  19  6.783127E+05  2.157519E+06  4.412506E+05 -1.721639E+06 -2.151878E+05  2.526284E+05
         3  20  4.347167E+05  8.682703E+05  3.113971E+05 -1.542580E+06 -1.225587E+05  3.103984E+05
         3  21  2.800151E+05 -3.914189E+05  2.408266E+05 -1.574712E+06 -2.990001E+04  3.681469E+05
         3  22  4.337807E+04 -6.436897E+05  6.487259E+04 -1.714505E+06 -2.136952E+05  3.550269E+04
         3  23  9.117481E+04 -6.568790E+05  1.125143E+05 -1.608433E+06 -1.210063E+05  9.335835E+04
         3  24  2.279640E+05 -6.422959E+05  2.193529E+05 -1.713431E+06 -2.830234E+04  1.512927E+05
         3  25 -5.918683E+05 -3.436814E+06 -3.113985E+05 -1.707382E+06 -2.122027E+05 -1.806913E+05
         3  26 -2.524207E+05 -2.179537E+06 -8.620284E+04 -1.674110E+06 -1.194052E+05 -1.231747E+05
         3  27  1.760096E+05 -8.929626E+05  1.980683E+05 -1.852091E+06 -2.660720E+04 -6.547951E+04
         4   1 -6.305121E+06 -1.610120E+06 -1.109483E+06 -2.219951E+06 -1.058254E+06 -4.129307E+05
         4   2 -6.044309E+06 -2.111945E+05 -1.504660E+05 -2.686448E+06 -6.726313E+05 -2.972454E+05
         4   3 -6.611095E+06 -3.145788E+05  7.346084E+04 -2.516222E+06 -3.011385E+05 -1.446467E+05
         4   4 -8.556766E+06 -2.284469E+06 -1.697171E+06 -2.645415E+06 -1.065164E+06 -4.159288E+05
         4   5 -8.053497E+06 -9.309379E+05 -6.944812E+05 -3.188919E+06 -6.727443E+05 -2.973641E+05
         4   6 -8.381469E+06 -1.084530E+06 -4.344293E+05 -3.095120E+06 -2.943049E+05 -1.419791E+05
         4   7 -1.080347E+07 -2.958921E+06 -2.285255E+06 -3.069679E+06 -1.072038E+06 -4.189203E+05
         4   8 -1.005877E+07 -1.650559E+06 -1.238856E+06 -3.689954E+06 -6.728533E+05 -2.974816E+05
         4   9 -1.014877E+07 -1.854025E+06 -9.426288E+05 -3.672413E+06 -2.874918E+05 -1.393216E+05
         4  10 -6.306381E+06 -1.610610E+06 -1.111936E+06 -2.220306E+06  2.870129E-09  5.771509E-10
         4  11 -6.044823E+06 -2.114135E+05 -1.514944E+05 -2.686610E+06  5.246092E-09  9.897458E-10
         4  12 -6.611199E+06 -3.146262E+05  7.324856E+04 -2.516257E+06 -1.382131E-09 -2.291068E-10
         4  13 -8.558047E+06 -2.284968E+06 -1.699666E+06 -2.645775E+06 -4.470003E-09  4.307313E-10
         4  14 -8.054012E+06 -9.311578E+05 -6.955135E+05 -3.189081E+06 -8.848310E-10  1.543970E-10
         4  15 -8.381568E+06 -1.084576E+06 -4.346330E+05 -3.095154E+06  2.023403E-09 -1.393657E-09
         4  16 -1.080477E+07 -2.959428E+06 -2.287792E+06 -3.070045E+06 -4.984590E-10  5.851746E-10
         4  17 -1.005929E+07 -1.650779E+06 -1.239892E+06 -3.690117E+06 -4.738981E-09  1.975200E-09
         4  18 -1.014886E+07 -1.854069E+06 -9.428242E+05 -3.672445E+06 -8.767873E-10 -9.015565E-10
         4  19 -6.305121E+06 -1.610120E+06 -1.109483E+06 -2.219951E+06  1.058254E+06  4.129307E+05
         4  20 -6.044309E+06 -2.111945E+05 -1.504660E+05 -2.686448E+06  6.726313E+05  2.972454E+05
         4  21 -6.611095E+06 -3.145788E+05  7.346084E+04 -2.516222E+06  3.011385E+05  1.446467E+05
         4  22 -8.556766E+06 -2.284469E+06 -1.697171E+06 -2.645415E+06  1.065164E+06  4.159288E+05
         4  23 -8.053497E+06 -9.309379E+05 -6.944812E+05 -3.188919E+06  6.727443E+05  2.973641E+05
         4  24 -8.381469E+06 -1.084530E+06 -4.344293E+05 -3.095120E+06  2.943049E+05  1.419791E+05
         4  25 -1.080347E+07 -2.958921E+06 -2.285255E+06 -3.069679E+06  1.072038E+06  4.189203E+05
         4  26 -1.005877E+07 -1.650559E+06 -1.238856E+06 -3.689954E+06  6.728533E+05  2.974816E+05
         4  27 -1.014877E+07 -1.854025E+06 -9.426288E+05 -3.672413E+06  2.874918E+05  1.393216E+05
         5   1 -7.528049E+06 -9.451084E+05 -1.309149E+05 -2.733811E+06 -2.343419E+05 -1.075382E+05
         5   2 -7.581778E+06 -1.001186E+06 -1.068900E+04 -3.050666E+06 -1.518510E+05 -6.958198E+04
         5   3 -8.083434E+06 -9.566736E+05 -2.095262E+04 -2.921874E+06 -7.166970E+04 -2.580325E+04
         5   4 -8.371290E+06 -1.244365E+06 -3.588370E+05 -2.941859E+06 -2.335675E+05 -1.072546E+05
         5   5 -8.133836E+06 -1.207989E+06 -1.621549E+05 -3.197745E+06 -1.499026E+05 -6.883398E+04
         5   6 -8.344792E+06 -1.071406E+06 -9.706155E+04 -3.007976E+06 -6.850406E+04 -2.457788E+04
         5   7 -9.213839E+06 -1.543603E+06 -5.868220E+05 -3.149659E+06 -2.327941E+05 -1.069713E+05
         5   8 -8.685597E+06 -1.414777E+06 -3.136484E+05 -3.344706E+06 -1.479560E+05 -6.808667E+04
         5   9 -8.606082E+06 -1.186129E+06 -1.731771E+05 -3.094041E+06 -6.533991E+04 -2.335325E+04
         5  10 -7.528112E+06 -9.451359E+05 -1.310415E+05 -2.733832E+06  1.624827E-09 -2.300113E-09
         5  11 -7.581804E+06 -1.001197E+06 -1.074218E+04 -3.050675E+06  2.142401E-09  2.465711E-09
         5  12 -8.083440E+06 -9.566757E+05 -2.096369E+04 -2.921876E+06  2.195746E-10 -1.404987E-09
         5  13 -8.371352E+06 -1.244392E+06 -3.589631E+05 -2.941879E+06 -4.657477E-11 -2.423555E-09
         5  14 -8.133862E+06 -1.208000E+06 -1.622068E+05 -3.197754E+06  4.952245E-09 -7.788486E-10
         5  15 -8.344797E+06 -1.071408E+06 -9.707166E+04 -3.007977E+06 -2.280501E-09  1.020336E-09
         5  16 -9.213901E+06 -1.543630E+06 -5.869474E+05 -3.149679E+06 -2.410664E-09 -2.501806E-09
         5  17 -8.685622E+06 -1.414788E+06 -3.136991E+05 -3.344715E+06 -5.771392E-10 -1.149663E-09
         5  18 -8.606087E+06 -1.186131E+06 -1.731863E+05 -3.094042E+06 -9.350228E-10  2.736724E-09
         5  19 -7.528049E+06 -9.451084E+05 -1.309149E+05 -2.733811E+06  2.343419E+05  1.075382E+05
         5  20 -7.581778E+06 -1.001186E+06 -1.068900E+04 -3.050666E+06  1.518510E+05  6.958198E+04
         5  21 -8.083434E+06 -9.566736E+05 -2.095262E+04 -2.921874E+06  7.166970E+04  2.580325E+04
         5  22 -8.371290E+06 -1.244365E+06 -3.588370E+05 -2.941859E+06  2.335675E+05  1.072546E+05
         5  23 -8.133836E+06 -1.207989E+06 -1.621549E+05 -3.197745E+06  1.499026E+05  6.883398E+04
         5  24 -8.344792E+06 -1.071406E+06 -9.706155E+04 -3.007976E+06  6.850406E+04  2.457788E+04
         5  25 -9.213839E+06 -1.543603E+06 -5.868220E+05 -3.149659E+06  2.327941E+05  1.069713E+05
         5  26 -8.685597E+06 -1.414777E+06 -3.136484E+05 -3.344706E+06  1.479560E+05  6.808667E+04
         5  27 -8.606082E+06 -1.186129E+06 -1.731771E+05 -3.094041E+06  6.533991E+04  2.335325E+04
         6   1 -9.295244E+06 -1.487652E+06 -3.476222E+05 -3.275954E+06 -6.021590E+04 -1.201683E+04
         6   2 -9.383457E+06 -1.698070E+06 -3.745259E+05 -3.515229E+06 -4.380117E+04  6.334635E+03
         6   3 -9.778529E+06 -1.644186E+06 -4.247283E+05 -3.409478E+06 -2.581834E+04  2.070451E+04
         6   4 -8.324641E+06 -1.108302E+06 -7.677469E+04 -3.002296E+06 -5.752530E+04 -1.097975E+04
         6   5 -8.169515E+06 -1.229760E+06 -3.824795E+04 -3.178827E+06 -4.196554E+04  7.035729E+03
         6   6 -8.321067E+06 -1.086736E+06 -2.230152E+04 -3.010405E+06 -2.483029E+04  2.107667E+04
         6   7 -7.353118E+06 -7.288851E+05  1.939845E+05 -2.728242E+06 -5.482990E+04 -9.940773E+03
         6   8 -6.954136E+06 -7.613547E+05  2.978931E+05 -2.841818E+06 -4.012581E+04  7.738405E+03
         6   9 -6.861532E+06 -5.291590E+05  3.799287E+05 -2.610473E+06 -2.383962E+04  2.144984E+04
         6  10 -9.295248E+06 -1.487653E+06 -3.476294E+05 -3.275954E+06 -2.415237E-09 -2.142331E-09
         6  11 -9.383459E+06 -1.698071E+06 -3.745296E+05 -3.515229E+06  6.568652E-10  1.048576E-10
         6  12 -9.778530E+06 -1.644187E+06 -4.247304E+05 -3.409477E+06 -5.448288E-09 -1.093419E-09
         6  13 -8.324645E+06 -1.108303E+06 -7.678123E+04 -3.002297E+06 -1.331435E-09  3.083026E-09
         6  14 -8.169517E+06 -1.229761E+06 -3.825139E+04 -3.178826E+06  1.455271E-09  4.123142E-09
         6  15 -8.321067E+06 -1.086737E+06 -2.230351E+04 -3.010405E+06 -9.925473E-10  2.112595E-09
         6  16 -7.353122E+06 -7.288860E+05  1.939786E+05 -2.728243E+06  3.085396E-09  1.046578E-09
         6  17 -6.954138E+06 -7.613552E+05  2.978899E+05 -2.841818E+06  2.719111E-09  9.490221E-10
         6  18 -6.861533E+06 -5.291596E+05  3.799267E+05 -2.610473E+06 -3.732465E-09  1.608197E-09
         6  19 -9.295244E+06 -1.487652E+06 -3.476222E+05 -3.275954E+06  6.021590E+04  1.201683E+04
         6  20 -9.383457E+06 -1.698070E+06 -3.745259E+05 -3.515229E+06  4.380117E+04 -6.334635E+03
         6  21 -9.778529E+06 -1.644186E+06 -4.247283E+05 -3.409478E+06  2.581834E+04 -2.070451E+04
         6  22 -8.324641E+06 -1.108302E+06 -7.677469E+04 -3.002296E+06  5.752530E+04  1.097975E+04
         6  23 -8.169515E+06 -1.229760E+06 -3.824795E+04 -3.178827E+06  4.196554E+04 -7.035729E+03
         6  24 -8.321067E+06 -1.086736E+06 -2.230152E+04 -3.010405E+06  2.483029E+04 -2.107667E+04
         6  25 -7.353118E+06 -7.288851E+05  1.939845E+05 -2.728242E+06  5.482990E+04  9.940773E+03
         6  26 -6.954136E+06 -7.613547E+05  2.978931E+05 -2.841818E+06  4.012581E+04 -7.738405E+03
         6  27 -6.861532E+06 -5.291590E+05  3.799287E+05 -2.610473E+06  2.383962E+04 -2.144984E+04
         7   1 -1.042927E+07 -1.969648E+06 -6.161440E+05 -3.658784E+06 -2.578638E+04  2.576728E+04
         7   2 -1.046876E+07 -2.018546E+06 -6.266073E+05 -3.711610E+06 -2.046894E+04  3.458453E+04
         7   3 -1.054557E+07 -1.999462E+06 -6.362358E+05 -3.678033E+06 -1.209326E+04  3.531916E+04
         7   4 -8.263341E+06 -1.139524E+06 -1.615228E+04 -3.064702E+06 -2.360496E+04  2.658689E+04
         7   5 -8.244761E+06 -1.172830E+06 -1.266397E+04 -3.108216E+06 -2.005495E+04  3.472925E+04
         7   6 -8.263049E+06 -1.137749E+06 -6.899121E+03 -3.065342E+06 -1.345129E+04  3.480332E+04
         7   7 -6.092844E+06 -3.091170E+05  5.834001E+05 -2.468716E+06 -2.141497E+04  2.740979E+04
         7   8 -6.015948E+06 -3.268308E+05  6.008200E+05 -2.502838E+06 -1.963928E+04  3.487463E+04
         7   9 -5.975460E+06 -2.757529E+05  6.219562E+05 -2.450587E+06 -1.481491E+04  3.428543E+04
         7  10 -1.042928E+07 -1.969649E+06 -6.161465E+05 -3.658783E+06 -9.305629E-10 -2.102904E-09
         7  11 -1.046876E+07 -2.018547E+06 -6.266103E+05 -3.711610E+06 -2.704589E-09 -9.866780E-10
         7  12 -1.054557E+07 -1.999464E+06 -6.362384E+05 -3.678033E+06 -3.332819E-09 -1.077519E-09
         7  13 -8.263342E+06 -1.139525E+06 -1.615465E+04 -3.064701E+06 -6.561442E-09 -1.661850E-10
         7  14 -8.244762E+06 -1.172831E+06 -1.266698E+04 -3.108215E+06 -1.711181E-09 -2.322564E-09
         7  15 -8.263049E+06 -1.137750E+06 -6.901726E+03 -3.065341E+06 -2.576217E-10 -5.816865E-10
         7  16 -6.092845E+06 -3.091179E+05  5.833978E+05 -2.468715E+06 -3.007356E-09 -2.115360E-09
         7  17 -6.015949E+06 -3.268322E+05  6.008170E+05 -2.502837E+06  5.275454E-09  4.178890E-10
         7  18 -5.975461E+06 -2.757542E+05  6.219536E+05 -2.450587E+06  3.804385E-09 -6.670413E-10
         7  19 -1.042927E+07 -1.969648E+06 -6.161440E+05 -3.658784E+06  2.578638E+04 -2.576728E+04
         7  20 -1.046876E+07 -2.018546E+06 -6.266073E+05 -3.711610E+06  2.046894E+04 -3.458453E+04
         7  21 -1.054557E+07 -1.999462E+06 -6.362358E+05 -3.678033E+06  1.209326E+04 -3.531916E+04
         7  22 -8.263341E+06 -1.139524E+06 -1.615228E+04 -3.064702E+06  2.360496E+04 -2.658689E+04
         7  23 -8.244761E+06 -1.172830E+06 -1.266397E+04 -3.108216E+06  2.005495E+04 -3.472925E+04
         7  24 -8.263049E+06 -1.137749E+06 -6.899121E+03 -3.065342E+06  1.345129E+04 -3.480332E+04
         7  25 -6.092844E+06 -3.091170E+05  5.834001E+05 -2.468716E+06  2.141497E+04 -2.740979E+04
         7  26 -6.015948E+06 -3.268308E+05  6.008200E+05 -2.502838E+06  1.963928E+04 -3.487463E+04
         7  27 -5.975460E+06 -2.757529E+05  6.219562E+05 -2.450587E+06  1.481491E+04 -3.428543E+04
         8   1 -1.021509E+07 -1.955012E+06 -5.607045E+05 -3.672499E+06 -1.210759E+04  3.341650E+04
         8   2 -1.016004E+07 -1.787690E+06 -5.184096E+05 -3.509765E+06 -4.140671E+03  3.327734E+04
         8   3 -9.885676E+06 -1.822672E+06 -4.776212E+05 -3.575929E+06  6.231794E+03  2.643975E+04
         8   4 -8.205787E+06 -1.198458E+06 -7.589491E+03 -3.135009E+06 -1.196590E+04  3.346009E+04
         8   5 -8.315711E+06 -1.097394E+06 -1.159242E+04 -3.020669E+06 -5.463137E+03  3.278495E+04
         8   6 -8.206049E+06 -1.198259E+06 -1.591275E+04 -3.135190E+06  3.439545E+03  2.542030E+04
         8   7 -6.192559E+06 -4.416892E+05  5.451524E+05 -2.595927E+06 -1.182371E+04  3.350388E+04
         8   8 -6.468079E+06 -4.069248E+05  4.949120E+05 -2.530246E+06 -6.790020E+03  3.229095E+04
         8   9 -6.523686E+06 -5.737127E+05  4.455371E+05 -2.693364E+06  6.388408E+02  2.439780E+04
         8  10 -1.021509E+07 -1.955014E+06 -5.607069E+05 -3.672499E+06 -1.479745E-09 -6.902197E-11
         8  11 -1.016004E+07 -1.787691E+06 -5.184117E+05 -3.509765E+06  3.380436E-09  4.493764E-09
         8  12 -9.885676E+06 -1.822673E+06 -4.776226E+05 -3.575929E+06  1.342704E-09 -1.370973E-09
         8  13 -8.205787E+06 -1.198459E+06 -7.591854E+03 -3.135008E+06  4.233251E-10 -1.404821E-09
         8  14 -8.315711E+06 -1.097395E+06 -1.159449E+04 -3.020669E+06  1.350525E-09 -6.733738E-10
         8  15 -8.206049E+06 -1.198260E+06 -1.591399E+04 -3.135190E+06 -3.251161E-09  8.186055E-10
         8  16 -6.192559E+06 -4.416905E+05  5.451500E+05 -2.595927E+06  2.645335E-09 -5.776835E-10
         8  17 -6.468079E+06 -4.069259E+05  4.949100E+05 -2.530246E+06  3.386882E-10  1.300693E-09
         8  18 -6.523686E+06 -5.737133E+05  4.455360E+05 -2.693364E+06 -3.370731E-09  8.718328E-10
         8  19 -1.021509E+07 -1.955012E+06 -5.607045E+05 -3.672499E+06  1.210759E+04 -3.341650E+04
         8  20 -1.016004E+07 -1.787690E+06 -5.184096E+05 -3.509765E+06  4.140671E+03 -3.327734E+04
         8  21 -9.885676E+06 -1.822672E+06 -4.776212E+05 -3.575929E+06 -6.231794E+03 -2.643975E+04
         8  22 -8.205787E+06 -1.198458E+06 -7.589491E+03 -3.135009E+06  1.196590E+04 -3.346009E+04
         8  23 -8.315711E+06 -1.097394E+06 -1.159242E+04 -3.020669E+06  5.463137E+03 -3.278495E+04
         8  24 -8.206049E+06 -1.198259E+06 -1.591275E+04 -3.135190E+06 -3.439545E+03 -2.542030E+04
         8  25 -6.192559E+06 -4.416892E+05  5.451524E+05 -2.595927E+06  1.182371E+04 -3.350388E+04
         8  26 -6.468079E+06 -4.069248E+05  4.949120E+05 -2.530246E+06  6.790020E+03 -3.229095E+04
         8  27 -6.523686E+06 -5.737127E+05  4.455371E+05 -2.693364E+06 -6.388408E+02 -2.439780E+04
         9   1 -8.765744E+06 -1.446263E+06 -1.814358E+05 -3.330422E+06  1.091066E+04  2.054080E+04
         9   2 -8.644491E+06 -1.163011E+06 -1.182390E+05 -3.051458E+06  3.333066E+04  1.762667E+04
         9   3 -8.201931E+06 -1.253504E+06 -7.912442E+04 -3.167688E+06  5.597214E+04  1.408821E+04
         9   4 -8.181465E+06 -1.227511E+06 -2.175964E+04 -3.175017E+06  8.820091E+03  1.978255E+04
         9   5 -8.343675E+06 -1.052051E+06 -3.595920E+04 -2.973309E+06  3.110910E+04  1.682239E+04
         9   6 -8.184641E+06 -1.250296E+06 -7.412767E+04 -3.166818E+06  5.360993E+04  1.323468E+04
         9   7 -7.596855E+06 -1.008740E+06  1.378854E+05 -3.019478E+06  6.727337E+03  1.902348E+04
         9   8 -8.042772E+06 -9.410875E+05  4.631229E+04 -2.895127E+06  2.888634E+04  1.601768E+04
         9   9 -8.167351E+06 -1.247088E+06 -6.913092E+04 -3.165948E+06  5.124765E+04  1.238115E+04
         9  10 -8.765744E+06 -1.446264E+06 -1.814368E+05 -3.330422E+06  3.567310E-09  1.976099E-09
         9  11 -8.644492E+06 -1.163012E+06 -1.182417E+05 -3.051459E+06 -1.481354E-09 -3.297904E-09
         9  12 -8.201934E+06 -1.253505E+06 -7.913077E+04 -3.167689E+06  2.254869E-09  3.438119E-10
         9  13 -8.181465E+06 -1.227511E+06 -2.176053E+04 -3.175017E+06  3.142673E-09  4.802272E-10
         9  14 -8.343676E+06 -1.052052E+06 -3.596159E+04 -2.973310E+06 -2.976040E-09 -7.669522E-09
         9  15 -8.184644E+06 -1.250297E+06 -7.413348E+04 -3.166819E+06 -3.677095E-09  7.672633E-10
         9  16 -7.596855E+06 -1.008740E+06  1.378846E+05 -3.019478E+06 -1.344511E-09 -6.356479E-10
         9  17 -8.042773E+06 -9.410880E+05  4.631021E+04 -2.895127E+06 -6.948218E-09  8.364153E-09
         9  18 -8.167353E+06 -1.247089E+06 -6.913622E+04 -3.165948E+06 -6.487140E-09  2.846307E-09
         9  19 -8.765744E+06 -1.446263E+06 -1.814358E+05 -3.330422E+06 -1.091066E+04 -2.054080E+04
         9  20 -8.644491E+06 -1.163011E+06 -1.182390E+05 -3.051458E+06 -3.333066E+04 -1.762667E+04
         9  21 -8.201931E+06 -1.253504E+06 -7.912442E+04 -3.167688E+06 -5.597214E+04 -1.408821E+04
         9  22 -8.181465E+06 -1.227511E+06 -2.175964E+04 -3.175017E+06 -8.820091E+03 -1.978255E+04
         9  23 -8.343675E+06 -1.052051E+06 -3.595920E+04 -2.973309E+06 -3.110910E+04 -1.682239E+04
         9  24 -8.184641E+06 -1.250296E+06 -7.412767E+04 -3.166818E+06 -5.360993E+04 -1.323468E+04
         9  25 -7.596855E+06 -1.008740E+06  1.378854E+05 -3.019478E+06 -6.727337E+03 -1.902348E+04
         9  26 -8.042772E+06 -9.410875E+05  4.631229E+04 -2.895127E+06 -2.888634E+04 -1.601768E+04
         9  27 -8.167351E+06 -1.247088E+06 -6.913092E+04 -3.165948E+06 -5.124765E+04 -1.238115E+04
        10   1 -6.983591E+06 -7.641380E+05  2.412845E+05 -2.854144E+06  7.357371E+04  1.147287E+04
        10   2 -6.876395E+06 -5.026477E+05  2.372967E+05 -2.620500E+06  1.584113E+05  3.015251E+04
        10   3 -6.588934E+06 -7.375520E+05  1.121813E+05 -2.639583E+06  2.399909E+05  5.799862E+04
        10   4 -8.206779E+06 -1.205528E+06 -9.210121E+04 -3.161610E+06  7.007835E+04  1.020784E+04
        10   5 -8.308278E+06 -1.041461E+06 -1.559977E+05 -3.004416E+06  1.567651E+05  2.954618E+04
        10   6 -8.230149E+06 -1.374579E+06 -3.427406E+05 -3.099984E+06  2.401600E+05  5.804357E+04
        10   7 -9.428524E+06 -1.646869E+06 -4.256225E+05 -3.468535E+06  6.659049E+04  8.945336E+03
        10   8 -9.738177E+06 -1.580164E+06 -5.494809E+05 -3.387523E+06  1.551228E+05  2.894128E+04
        10   9 -9.868752E+06 -2.011414E+06 -7.979144E+05 -3.559257E+06  2.403279E+05  5.808798E+04
        10  10 -6.983597E+06 -7.641396E+05  2.412740E+05 -2.854145E+06  1.895209E-09  2.062261E-09
        10  11 -6.876423E+06 -5.026555E+05  2.372472E+05 -2.620504E+06  9.156961E-10  9.348738E-09
        10  12 -6.588998E+06 -7.375713E+05  1.120654E+05 -2.639594E+06 -1.717284E-10 -9.223498E-10
        10  13 -8.206784E+06 -1.205530E+06 -9.211077E+04 -3.161611E+06 -3.486082E-09  4.419079E-09
        10  14 -8.308305E+06 -1.041469E+06 -1.560462E+05 -3.004420E+06  3.386049E-09  1.597170E-09
        10  15 -8.230212E+06 -1.374599E+06 -3.428570E+05 -3.099996E+06 -8.906691E-09  1.312389E-10
        10  16 -9.428529E+06 -1.646870E+06 -4.256311E+05 -3.468536E+06 -5.102107E-09 -7.738304E-09
        10  17 -9.738203E+06 -1.580171E+06 -5.495285E+05 -3.387527E+06  2.000427E-09  6.251065E-10
        10  18 -9.868816E+06 -2.011434E+06 -7.980313E+05 -3.559268E+06 -8.580825E-10  4.445820E-10
        10  19 -6.983591E+06 -7.641380E+05  2.412845E+05 -2.854144E+06 -7.357371E+04 -1.147287E+04
        10  20 -6.876395E+06 -5.026477E+05  2.372967E+05 -2.620500E+06 -1.584113E+05 -3.015251E+04
        10  21 -6.588934E+06 -7.375520E+05  1.121813E+05 -2.639583E+06 -2.399909E+05 -5.799862E+04
        10  22 -8.206779E+06 -1.205528E+06 -9.210121E+04 -3.161610E+06 -7.007835E+04 -1.020784E+04
        10  23 -8.308278E+06 -1.041461E+06 -1.559977E+05 -3.004416E+06 -1.567651E+05 -2.954618E+04
        10  24 -8.230149E+06 -1.374579E+06 -3.427406E+05 -3.099984E+06 -2.401600E+05 -5.804357E+04
        10  25 -9.428524E+06 -1.646869E+06 -4.256225E+05 -3.468535E+06 -6.659049E+04 -8.945336E+03
        10  26 -9.738177E+06 -1.580164E+06 -5.494809E+05 -3.387523E+06 -1.551228E+05 -2.894128E+04
        10  27 -9.868752E+06 -2.011414E+06 -7.979144E+05 -3.559257E+06 -2.403279E+05 -5.808798E+04
        11   1 -6.021752E+06 -3.441322E+05  2.032794E+05 -2.608864E+06  3.107664E+05  7.590820E+04
        11   2 -5.883942E+06 -1.897174E+03 -4.281162E+04 -2.477718E+06  6.728512E+05  2.037691E+05
        11   3 -6.342306E+06 -1.279203E+06 -9.893041E+05 -1.945780E+06  1.021123E+06  3.686713E+05
        11   4 -8.333709E+06 -1.128710E+06 -4.152252E+05 -3.139493E+06  3.046826E+05  7.370508E+04
        11   5 -8.117361E+06 -8.893959E+05 -6.649890E+05 -3.125840E+06  6.737269E+05  2.040230E+05
        11   6 -8.500860E+06 -2.274699E+06 -1.622721E+06 -2.710753E+06  1.028979E+06  3.712650E+05
        11   7 -1.064050E+07 -1.913236E+06 -1.034191E+06 -3.668428E+06  2.986219E+05  7.150857E+04
        11   8 -1.034593E+07 -1.776470E+06 -1.287636E+06 -3.771780E+06  6.745950E+05  2.042736E+05
        11   9 -1.065479E+07 -3.269247E+06 -2.256604E+06 -3.473069E+06  1.036798E+06  3.738382E+05
        11  10 -6.021858E+06 -3.441648E+05  2.030849E+05 -2.608883E+06  3.605332E-09 -2.121417E-09
        11  11 -5.884443E+06 -2.065482E+03 -4.375099E+04 -2.477829E+06 -1.281831E-09  2.337146E-09
        11  12 -6.343473E+06 -1.279634E+06 -9.915442E+05 -1.946086E+06 -1.640288E-09 -1.068516E-10
        11  13 -8.333811E+06 -1.128741E+06 -4.154127E+05 -3.139511E+06 -8.328351E-09 -9.238550E-10
        11  14 -8.117865E+06 -8.895654E+05 -6.659345E+05 -3.125951E+06 -5.704785E-09 -3.291879E-09
        11  15 -8.502049E+06 -2.275139E+06 -1.625005E+06 -2.711064E+06 -2.148988E-09  1.173406E-09
        11  16 -1.064060E+07 -1.913266E+06 -1.034372E+06 -3.668445E+06 -2.540422E-09  5.088173E-10
        11  17 -1.034644E+07 -1.776641E+06 -1.288588E+06 -3.771892E+06 -2.728159E-09 -2.333359E-09
        11  18 -1.065600E+07 -3.269695E+06 -2.258931E+06 -3.473385E+06 -1.566232E-09 -1.994832E-10
        11  19 -6.021752E+06 -3.441322E+05  2.032794E+05 -2.608864E+06 -3.107664E+05 -7.590820E+04
        11  20 -5.883942E+06 -1.897174E+03 -4.281162E+04 -2.477718E+06 -6.728512E+05 -2.037691E+05
        11  21 -6.342306E+06 -1.279203E+06 -9.893041E+05 -1.945780E+06 -1.021123E+06 -3.686713E+05
        11  22 -8.333709E+06 -1.128710E+06 -4.152252E+05 -3.139493E+06 -3.046826E+05 -7.370508E+04
        11  23 -8.117361E+06 -8.893959E+05 -6.649890E+05 -3.125840E+06 -6.737269E+05 -2.040230E+05
        11  24 -8.500860E+06 -2.274699E+06 -1.622721E+06 -2.710753E+06 -1.028979E+06 -3.712650E+05
        11  25 -1.064050E+07 -1.913236E+06 -1.034191E+06 -3.668428E+06 -2.986219E+05 -7.150857E+04
        11  26 -1.034593E+07 -1.776470E+06 -1.287636E+06 -3.771780E+06 -6.745950E+05 -2.042736E+05
        11  27 -1.065479E+07 -3.269247E+06 -2.256604E+06 -3.473069E+06 -1.036798E+06 -3.738382E+05
        12   1  1.411589E+05 -7.460973E+05  1.351010E+05 -2.185544E+02  2.025911E+04 -5.602201E+00
        12   2  1.408226E+05 -7.475376E+05  1.347485E+05  7.315892E+01  2.022378E+04  5.217274E+00
        12   3  1.405205E+05 -7.486921E+05  1.344572E+05 -4.922013E+02  2.014591E+04  1.595864E+01
        12   4 -5.506775E+01 -1.316391E+06 -3.530687E+01 -1.904728E+02  2.026036E+04  2.486001E+00
        12   5 -6.895821E+01 -1.316532E+06 -7.583723E+01  2.380986E+02  2.022502E+04  3.777038E+01