
 stresses (elem, integ.pnt.,sxx,syy,szz,sxy,sxz,syz) for set ELALL and time  0.1000000E+01

         1   1 -5.193581E+06 -6.191655E+05 -8.027131E+05 -1.005118E+05 -5.462295E+05  8.913976E+01
         1   2 -5.072332E+06  1.340432E+05 -3.438296E+05 -2.618704E+04 -3.588037E+05  1.525374E+01
         1   3 -5.192013E+06  2.350616E+04 -2.235230E+05  4.815145E+04 -1.713856E+05 -1.339979E+01
         1   4 -5.193592E+06 -6.191847E+05 -8.027158E+05  4.817948E-08 -5.462295E+05 -3.155888E-10
         1   5 -5.072332E+06  1.340419E+05 -3.438298E+05  3.097123E-08 -3.588037E+05 -4.622699E-10
         1   6 -5.192016E+06  2.350177E+04 -2.235236E+05 -5.603965E-09 -1.713856E+05 -5.562928E-10
         1   7 -5.193581E+06 -6.191655E+05 -8.027131E+05  1.005118E+05 -5.462295E+05 -8.913976E+01
         1   8 -5.072332E+06  1.340432E+05 -3.438296E+05  2.618704E+04 -3.588037E+05 -1.525374E+01
         1   9 -5.192013E+06  2.350616E+04 -2.235230E+05 -4.815145E+04 -1.713856E+05  1.339979E+01
         1  10 -5.193904E+06 -6.192465E+05 -8.032784E+05 -1.005118E+05 -1.104736E-09 -1.868921E-10
         1  11 -5.072471E+06  1.340083E+05 -3.440735E+05 -2.618704E+04  4.367698E-09  5.976021E-10
         1  12 -5.192045E+06  2.349819E+04 -2.235786E+05  4.815145E+04  1.937782E-09 -1.583556E-10
         1  13 -5.193914E+06 -6.192656E+05 -8.032812E+05  3.101572E-08  6.702388E-11  6.739693E-11
         1  14 -5.072471E+06  1.340070E+05 -3.440737E+05 -3.425781E-09 -1.102842E-09  8.940924E-25
         1  15 -5.192048E+06  2.349380E+04 -2.235793E+05  3.093977E-08  3.558678E-09  6.797439E-11
         1  16 -5.193904E+06 -6.192465E+05 -8.032784E+05  1.005118E+05 -1.315004E-10  5.491401E-11
         1  17 -5.072471E+06  1.340083E+05 -3.440735E+05  2.618704E+04  2.137161E-09  4.788403E-10
         1  18 -5.192045E+06  2.349819E+04 -2.235786E+05 -4.815145E+04  1.584336E-09  7.627812E-10
         1  19 -5.193581E+06 -6.191655E+05 -8.027131E+05 -1.005118E+05  5.462295E+05 -8.913976E+01
         1  20 -5.072332E+06  1.340432E+05 -3.438296E+05 -2.618704E+04  3.588037E+05 -1.525374E+01
         1  21 -5.192013E+06  2.350616E+04 -2.235230E+05  4.815145E+04  1.713856E+05  1.339979E+01
         1  22 -5.193592E+06 -6.191847E+05 -8.027158E+05  3.098441E-08  5.462295E+05  2.753290E-10
         1  23 -5.072332E+06  1.340419E+05 -3.438298E+05 -3.430335E-09  3.588037E+05  5.544942E-10
         1  24 -5.192016E+06  2.350177E+04 -2.235236E+05  4.382213E-08  1.713856E+05  5.914139E-10
         1  25 -5.193581E+06 -6.191655E+05 -8.027131E+05  1.005118E+05  5.462295E+05  8.913976E+01
         1  26 -5.072332E+06  1.340432E+05 -3.438296E+05  2.618704E+04  3.588037E+05  1.525374E+01
         1  27 -5.192013E+06  2.350616E+04 -2.235230E+05 -4.815145E+04  1.713856E+05 -1.339979E+01
         2   1 -5.147104E+06 -8.819619E+04 -1.845027E+05 -1.355639E+04 -1.350186E+05  2.971800E+00
         2   2 -5.128469E+06  1.916918E+04 -8.906181E+04 -3.256941E+03 -8.857379E+04  4.683713E-01
         2   3 -5.146807E+06  3.268136E+03 -5.485314E+04  7.042529E+03 -4.212779E+04 -4.817098E-01
         2   4 -5.147104E+06 -8.819654E+04 -1.845028E+05  3.317219E-08 -1.350186E+05  4.457212E-10
         2   5 -5.128469E+06  1.916916E+04 -8.906182E+04  5.890265E-08 -8.857379E+04  1.689416E-09
         2   6 -5.146807E+06  3.268042E+03 -5.485315E+04  8.676486E-08 -4.212779E+04  5.712392E-10
         2   7 -5.147104E+06 -8.819619E+04 -1.845027E+05  1.355639E+04 -1.350186E+05 -2.971800E+00
         2   8 -5.128469E+06  1.916918E+04 -8.906181E+04  3.256941E+03 -8.857379E+04 -4.683713E-01
         2   9 -5.146807E+06  3.268136E+03 -5.485314E+04 -7.042529E+03 -4.212779E+04  4.817098E-01
         2  10 -5.147123E+06 -8.820114E+04 -1.845373E+05 -1.355639E+04  3.197780E-12 -4.392431E-10
         2  11 -5.128477E+06  1.916705E+04 -8.907668E+04 -3.256940E+03 -9.886745E-10 -4.050748E-10
         2  12 -5.146809E+06  3.267655E+03 -5.485650E+04  7.042529E+03  1.557456E-09  1.725039E-09
         2  13 -5.147124E+06 -8.820148E+04 -1.845373E+05 -1.191138E-09  2.264876E-09 -3.847490E-12
         2  14 -5.128477E+06  1.916703E+04 -8.907668E+04 -1.287025E-09 -4.009502E-09  3.858259E-10
         2  15 -5.146809E+06  3.267561E+03 -5.485651E+04  2.872247E-08 -2.594055E-09  8.219303E-10
         2  16 -5.147123E+06 -8.820114E+04 -1.845373E+05  1.355639E+04 -8.767193E-10  1.367651E-10
         2  17 -5.128477E+06  1.916705E+04 -8.907668E+04  3.256940E+03 -8.038222E-10  2.273811E-09
         2  18 -5.146809E+06  3.267655E+03 -5.485650E+04 -7.042529E+03 -1.102525E-09  8.262396E-10
         2  19 -5.147104E+06 -8.819619E+04 -1.845027E+05 -1.355639E+04  1.350186E+05 -2.971800E+00
         2  20 -5.128469E+06  1.916918E+04 -8.906181E+04 -3.256941E+03  8.857379E+04 -4.683713E-01
         2  21 -5.146807E+06  3.268136E+03 -5.485314E+04  7.042529E+03  4.212779E+04  4.817098E-01
         2  22 -5.147104E+06 -8.819654E+04 -1.845028E+05 -1.166062E-09  1.350186E+05 -5.656041E-10
         2  23 -5.128469E+06  1.916916E+04 -8.906182E+04 -2.706969E-08  8.857379E+04 -8.661698E-10
         2  24 -5.146807E+06  3.268042E+03 -5.485315E+04  1.512454E-07  4.212779E+04  1.071122E-09
         2  25 -5.147104E+06 -8.819619E+04 -1.845027E+05  1.355639E+04  1.350186E+05  2.971800E+00
         2  26 -5.128469E+06  1.916918E+04 -8.906181E+04  3.256941E+03  8.857379E+04  4.683713E-01
         2  27 -5.146807E+06  3.268136E+03 -5.485314E+04 -7.042529E+03  4.212779E+04 -4.817098E-01
         3   1 -5.139959E+06 -1.247995E+04 -4.374893E+04 -1.731229E+03 -3.329339E+04  9.358275E-02
         3   2 -5.136972E+06  2.736733E+03 -2.283251E+04 -3.446469E+02 -2.167737E+04  1.213007E-02
         3   3 -5.139901E+06  4.216850E+02 -1.390789E+04  1.041907E+03 -1.006140E+04 -1.702049E-02
         3   4 -5.139959E+06 -1.247995E+04 -4.374893E+04 -6.170769E-08 -3.329339E+04  2.664630E-10
         3   5 -5.136972E+06  2.736733E+03 -2.283251E+04 -3.685234E-08 -2.167737E+04 -5.983443E-10
         3   6 -5.139901E+06  4.216830E+02 -1.390789E+04 -3.564935E-08 -1.006140E+04 -7.329843E-10
         3   7 -5.139959E+06 -1.247995E+04 -4.374893E+04  1.731229E+03 -3.329339E+04 -9.358275E-02
         3   8 -5.136972E+06  2.736733E+03 -2.283251E+04  3.446469E+02 -2.167737E+04 -1.213008E-02
         3   9 -5.139901E+06  4.216850E+02 -1.390789E+04 -1.041907E+03 -1.006140E+04  1.702049E-02
         3  10 -5.139960E+06 -1.248025E+04 -4.375103E+04 -1.731229E+03 -3.573302E-09  1.734131E-09
         3  11 -5.136972E+06  2.736606E+03 -2.283340E+04 -3.446469E+02 -1.079585E-09 -2.022798E-09
         3  12 -5.139901E+06  4.216576E+02 -1.390809E+04  1.041907E+03 -3.568421E-09  2.041262E-10
         3  13 -5.139960E+06 -1.248026E+04 -4.375103E+04 -2.735767E-08 -1.520457E-10  5.284916E-10
         3  14 -5.136972E+06  2.736606E+03 -2.283340E+04 -1.106457E-08 -4.298877E-09 -6.346798E-10
         3  15 -5.139901E+06  4.216555E+02 -1.390809E+04 -1.627880E-08 -6.038386E-10  8.193688E-11
         3  16 -5.139960E+06 -1.248025E+04 -4.375103E+04  1.731229E+03 -1.582144E-10  7.970527E-10
         3  17 -5.136972E+06  2.736606E+03 -2.283340E+04  3.446469E+02  4.192160E-09 -1.779040E-10
         3  18 -5.139901E+06  4.216576E+02 -1.390809E+04 -1.041907E+03 -4.957849E-10 -4.417892E-11
         3  19 -5.139959E+06 -1.247995E+04 -4.374893E+04 -1.731229E+03  3.329339E+04 -9.358274E-02
         3  20 -5.136972E+06  2.736733E+03 -2.283251E+04 -3.446469E+02  2.167737E+04 -1.213007E-02
         3  21 -5.139901E+06  4.216850E+02 -1.390789E+04  1.041907E+03  1.006140E+04  1.702049E-02
         3  22 -5.139959E+06 -1.247995E+04 -4.374893E+04  7.581597E-08  3.329339E+04  7.946024E-10
         3  23 -5.136972E+06  2.736733E+03 -2.283251E+04  1.473156E-08  2.167737E+04 -1.070338E-09
         3  24 -5.139901E+06  4.216830E+02 -1.390789E+04 -1.841572E-08  1.006140E+04  1.039799E-09
         3  25 -5.139959E+06 -1.247995E+04 -4.374893E+04  1.731229E+03  3.329339E+04  9.358275E-02
         3  26 -5.136972E+06  2.736733E+03 -2.283251E+04  3.446469E+02  2.167737E+04  1.213007E-02
         3  27 -5.139901E+06  4.216850E+02 -1.390789E+04 -1.041907E+03  1.006140E+04 -1.702050E-02
         4   1 -5.138840E+06 -1.740779E+03 -1.107579E+04 -2.112938E+02 -7.816006E+03  2.681365E-03
         4   2 -5.138277E+06  4.250346E+02 -6.667015E+03 -2.184039E+01 -4.473973E+03  1.586500E-04
         4   3 -5.138830E+06 -1.112111E+02 -5.123136E+03  1.676155E+02 -1.131880E+03 -3.080336E-04
         4   4 -5.138840E+06 -1.740779E+03 -1.107579E+04  9.587269E-08 -7.816006E+03  5.981830E-11
         4   5 -5.138277E+06  4.250346E+02 -6.667015E+03  2.418289E-08 -4.473973E+03  1.905171E-09
         4   6 -5.138830E+06 -1.112112E+02 -5.123136E+03  3.419659E-08 -1.131880E+03  1.022325E-09
         4   7 -5.138840E+06 -1.740779E+03 -1.107579E+04  2.112938E+02 -7.816006E+03 -2.681365E-03
         4   8 -5.138277E+06  4.250346E+02 -6.667015E+03  2.184039E+01 -4.473973E+03 -1.586499E-04
         4   9 -5.138830E+06 -1.112111E+02 -5.123136E+03 -1.676155E+02 -1.131880E+03  3.080344E-04
         4  10 -5.138840E+06 -1.740795E+03 -1.107591E+04 -2.112938E+02 -1.072000E-09  3.521412E-10
         4  11 -5.138277E+06  4.250292E+02 -6.667053E+03 -2.184039E+01  4.976473E-09 -3.227738E-10
         4  12 -5.138830E+06 -1.112115E+02 -5.123138E+03  1.676155E+02  2.764409E-10 -2.281423E-11
         4  13 -5.138840E+06 -1.740795E+03 -1.107591E+04  4.427457E-08 -2.582899E-09  3.162235E-10
         4  14 -5.138277E+06  4.250292E+02 -6.667053E+03 -1.598366E-09  1.307079E-09 -1.741022E-11
         4  15 -5.138830E+06 -1.112115E+02 -5.123138E+03 -2.599313E-08  5.306315E-10  6.090851E-10
         4  16 -5.138840E+06 -1.740795E+03 -1.107591E+04  2.112938E+02 -3.559812E-09 -2.543821E-10
         4  17 -5.138277E+06  4.250292E+02 -6.667053E+03  2.184039E+01  8.910657E-10 -7.893896E-10
         4  18 -5.138830E+06 -1.112115E+02 -5.123138E+03 -1.676155E+02  3.894225E-10  8.087298E-10
         4  19 -5.138840E+06 -1.740779E+03 -1.107579E+04 -2.112938E+02  7.816006E+03 -2.681363E-03
         4  20 -5.138277E+06  4.250346E+02 -6.667015E+03 -2.184039E+01  4.473973E+03 -1.586467E-04
         4  21 -5.138830E+06 -1.112111E+02 -5.123136E+03  1.676155E+02  1.131880E+03  3.080358E-04
         4  22 -5.138840E+06 -1.740779E+03 -1.107579E+04  7.868519E-08  7.816006E+03  5.119436E-10
         4  23 -5.138277E+06  4.250346E+02 -6.667015E+03 -2.738382E-08  4.473973E+03 -9.865840E-10
         4  24 -5.138830E+06 -1.112112E+02 -5.123136E+03  1.975290E-09  1.131880E+03  1.434094E-10
         4  25 -5.138840E+06 -1.740779E+03 -1.107579E+04  2.112938E+02  7.816006E+03  2.681362E-03
         4  26 -5.138277E+06  4.250346E+02 -6.667015E+03  2.184039E+01  4.473973E+03  1.586467E-04
         4  27 -5.138830E+06 -1.112111E+02 -5.123136E+03 -1.676155E+02  1.131880E+03 -3.080336E-04
         5   1 -5.138777E+06 -1.985389E+02 -4.897564E+03 -1.254538E+02 -2.298922E+02  4.683006E-05
         5   2 -5.138342E+06  3.269690E+02 -5.412738E+03  1.793494E+01  2.481022E+03  7.224470E-05
         5   3 -5.138783E+06 -1.224281E+03 -8.223019E+03  1.613237E+02  5.191932E+03  1.359913E-03
         5   4 -5.138777E+06 -1.985389E+02 -4.897564E+03  1.070647E-08 -2.298922E+02  9.485761E-10
         5   5 -5.138342E+06  3.269690E+02 -5.412738E+03  4.908772E-08  2.481022E+03  4.088095E-10
         5   6 -5.138783E+06 -1.224281E+03 -8.223019E+03 -7.106281E-09  5.191932E+03  7.401557E-10
         5   7 -5.138777E+06 -1.985389E+02 -4.897564E+03  1.254538E+02 -2.298922E+02 -4.682508E-05
         5   8 -5.138342E+06  3.269690E+02 -5.412738E+03 -1.793494E+01  2.481022E+03 -7.224657E-05
         5   9 -5.138783E+06 -1.224281E+03 -8.223019E+03 -1.613237E+02  5.191932E+03 -1.359914E-03
         5  10 -5.138777E+06 -1.985389E+02 -4.897564E+03 -1.254538E+02 -1.631571E-09  8.825967E-10
         5  11 -5.138342E+06  3.269673E+02 -5.412749E+03  1.793494E+01 -2.100792E-09 -2.653854E-09
         5  12 -5.138783E+06 -1.224288E+03 -8.223070E+03  1.613237E+02 -5.378704E-10 -1.729994E-09
         5  13 -5.138777E+06 -1.985389E+02 -4.897564E+03  2.790652E-08  3.306548E-10  4.598509E-10
         5  14 -5.138342E+06  3.269673E+02 -5.412749E+03  5.768566E-08  2.323590E-10 -5.576169E-10
         5  15 -5.138783E+06 -1.224288E+03 -8.223070E+03 -3.719696E-08 -1.512142E-09  1.819217E-10
         5  16 -5.138777E+06 -1.985389E+02 -4.897564E+03  1.254538E+02 -8.351738E-10 -4.981663E-10
         5  17 -5.138342E+06  3.269673E+02 -5.412749E+03 -1.793494E+01 -5.364261E-09 -8.308646E-11
         5  18 -5.138783E+06 -1.224288E+03 -8.223070E+03 -1.613237E+02 -1.309118E-09  1.216223E-09
         5  19 -5.138777E+06 -1.985389E+02 -4.897564E+03 -1.254538E+02  2.298922E+02 -4.682681E-05
         5  20 -5.138342E+06  3.269690E+02 -5.412738E+03  1.793494E+01 -2.481022E+03 -7.224543E-05
         5  21 -5.138783E+06 -1.224281E+03 -8.223019E+03  1.613237E+02 -5.191932E+03 -1.359915E-03
         5  22 -5.138777E+06 -1.985389E+02 -4.897564E+03  4.505001E-08  2.298922E+02 -3.001692E-11
         5  23 -5.138342E+06  3.269690E+02 -5.412738E+03  4.907934E-08 -2.481022E+03 -1.075054E-09
         5  24 -5.138783E+06 -1.224281E+03 -8.223019E+03 -2.801030E-09 -5.191932E+03 -5.566231E-10
         5  25 -5.138777E+06 -1.985389E+02 -4.897564E+03  1.254538E+02  2.298922E+02  4.682545E-05
         5  26 -5.138342E+06  3.269690E+02 -5.412738E+03 -1.793494E+01 -2.481022E+03  7.224120E-05
         5  27 -5.138783E+06 -1.224281E+03 -8.223019E+03 -1.613237E+02 -5.191932E+03  1.359913E-03
         6   1 -5.139515E+06  2.815823E+02 -1.012281E+04 -7.341370E+02  6.840807E+03 -8.153966E-03
         6   2 -5.137440E+06  1.933715E+03 -1.627849E+04  2.443636E+02  1.512015E+04  5.998956E-03
         6   3 -5.139556E+06 -8.800641E+03 -3.095430E+04  1.222853E+03  2.339930E+04  4.645804E-02
         6   4 -5.139515E+06  2.815813E+02 -1.012281E+04 -2.041746E-08  6.840807E+03  1.201853E-09
         6   5 -5.137440E+06  1.933715E+03 -1.627849E+04  7.972185E-08  1.512015E+04  1.358154E-09
         6   6 -5.139556E+06 -8.800643E+03 -3.095430E+04  2.078578E-08  2.339930E+04 -1.564673E-09
         6   7 -5.139515E+06  2.815823E+02 -1.012281E+04  7.341370E+02  6.840807E+03  8.153967E-03
         6   8 -5.137440E+06  1.933715E+03 -1.627849E+04 -2.443636E+02  1.512015E+04 -5.998955E-03
         6   9 -5.139556E+06 -8.800641E+03 -3.095430E+04 -1.222853E+03  2.339930E+04 -4.645804E-02
         6  10 -5.139515E+06  2.815697E+02 -1.012290E+04 -7.341370E+02  1.996635E-09  2.520012E-10
         6  11 -5.137440E+06  1.933653E+03 -1.627892E+04  2.443636E+02 -1.093486E-09  1.496535E-09
         6  12 -5.139556E+06 -8.800789E+03 -3.095534E+04  1.222853E+03  2.282129E-09 -8.946862E-10
         6  13 -5.139515E+06  2.815686E+02 -1.012290E+04  3.115766E-08 -2.546898E-09  4.100213E-10
         6  14 -5.137440E+06  1.933653E+03 -1.627892E+04  5.391529E-08 -5.838089E-09  2.678752E-10
         6  15 -5.139556E+06 -8.800792E+03 -3.095534E+04  1.217947E-08  9.944986E-10 -2.763344E-10
         6  16 -5.139515E+06  2.815697E+02 -1.012290E+04  7.341370E+02 -1.221171E-09  1.105118E-09
         6  17 -5.137440E+06  1.933653E+03 -1.627892E+04 -2.443636E+02  2.241110E-09  1.184950E-10
         6  18 -5.139556E+06 -8.800789E+03 -3.095534E+04 -1.222853E+03  7.440276E-10  5.473549E-10
         6  19 -5.139515E+06  2.815823E+02 -1.012281E+04 -7.341370E+02 -6.840807E+03  8.153966E-03
         6  20 -5.137440E+06  1.933715E+03 -1.627849E+04  2.443636E+02 -1.512015E+04 -5.998951E-03
         6  21 -5.139556E+06 -8.800641E+03 -3.095430E+04  1.222853E+03 -2.339930E+04 -4.645803E-02
         6  22 -5.139515E+06  2.815813E+02 -1.012281E+04  1.394291E-08 -6.840807E+03 -3.678533E-10
         6  23 -5.137440E+06  1.933715E+03 -1.627849E+04  6.250073E-08 -1.512015E+04 -1.529023E-09
         6  24 -5.139556E+06 -8.800643E+03 -3.095430E+04  8.742207E-08 -2.339930E+04  6.558206E-10
         6  25 -5.139515E+06  2.815823E+02 -1.012281E+04  7.341370E+02 -6.840807E+03 -8.153968E-03
         6  26 -5.137440E+06  1.933715E+03 -1.627849E+04 -2.443636E+02 -1.512015E+04  5.998952E-03
         6  27 -5.139556E+06 -8.800641E+03 -3.095430E+04 -1.222853E+03 -2.339930E+04  4.645803E-02
         7   1 -5.144382E+06  2.302831E+03 -3.876112E+04 -4.965920E+03  2.964618E+04 -2.390317E-01
         7   2 -5.131448E+06  1.351847E+04 -6.285431E+04  2.297256E+03  6.242091E+04  2.328184E-01
         7   3 -5.144593E+06 -6.219720E+04 -1.301454E+05  9.560529E+03  9.519555E+04  1.477682E+00
         7   4 -5.144382E+06  2.302784E+03 -3.876113E+04  1.616765E-08  2.964618E+04 -1.586490E-09
         7   5 -5.131448E+06  1.351846E+04 -6.285432E+04  1.397386E-08  6.242091E+04  1.436647E-09
         7   6 -5.144593E+06 -6.219738E+04 -1.301454E+05  1.149530E-07  9.519555E+04 -9.020647E-10
         7   7 -5.144382E+06  2.302831E+03 -3.876112E+04  4.965920E+03  2.964618E+04  2.390317E-01
         7   8 -5.131448E+06  1.351847E+04 -6.285431E+04 -2.297256E+03  6.242091E+04 -2.328184E-01
         7   9 -5.144593E+06 -6.219720E+04 -1.301454E+05 -9.560529E+03  9.519555E+04 -1.477682E+00
         7  10 -5.144383E+06  2.302593E+03 -3.876279E+04 -4.965920E+03 -3.205757E-09  9.559142E-10
         7  11 -5.131452E+06  1.351741E+04 -6.286170E+04  2.297256E+03 -4.620779E-09 -2.632079E-10
         7  12 -5.144602E+06 -6.219966E+04 -1.301625E+05  9.560529E+03  1.525499E-09  3.535179E-10
         7  13 -5.144383E+06  2.302546E+03 -3.876279E+04  1.620120E-08  4.829110E-09 -3.346988E-10
         7  14 -5.131452E+06  1.351740E+04 -6.286170E+04  3.976855E-08  1.917732E-09  1.586969E-10
         7  15 -5.144602E+06 -6.219983E+04 -1.301626E+05  1.177805E-08  2.774529E-09  3.672508E-11
         7  16 -5.144383E+06  2.302593E+03 -3.876279E+04  4.965920E+03  1.525558E-09 -8.100508E-10
         7  17 -5.131452E+06  1.351741E+04 -6.286170E+04 -2.297256E+03  3.587837E-09 -2.636333E-10
         7  18 -5.144602E+06 -6.219966E+04 -1.301625E+05 -9.560529E+03  2.404940E-09  2.030009E-10
         7  19 -5.144382E+06  2.302831E+03 -3.876112E+04 -4.965920E+03 -2.964618E+04  2.390317E-01
         7  20 -5.131448E+06  1.351847E+04 -6.285431E+04  2.297256E+03 -6.242091E+04 -2.328184E-01
         7  21 -5.144593E+06 -6.219720E+04 -1.301454E+05  9.560529E+03 -9.519555E+04 -1.477682E+00
         7  22 -5.144382E+06  2.302784E+03 -3.876113E+04  6.778317E-08 -2.964618E+04  9.572090E-10
         7  23 -5.131448E+06  1.351846E+04 -6.285432E+04  4.837527E-08 -6.242091E+04 -1.796193E-09
         7  24 -5.144593E+06 -6.219738E+04 -1.301454E+05  2.465814E-08 -9.519555E+04  3.483335E-10
         7  25 -5.144382E+06  2.302831E+03 -3.876112E+04  4.965920E+03 -2.964618E+04 -2.390317E-01
         7  26 -5.131448E+06  1.351847E+04 -6.285431E+04 -2.297256E+03 -6.242091E+04  2.328184E-01
         7  27 -5.144593E+06 -6.219720E+04 -1.301454E+05 -9.560529E+03 -9.519555E+04  1.477682E+00
         8   1 -5.176265E+06  1.657358E+04 -1.576641E+05 -3.395586E+04  1.208519E+05 -6.663059E+00
         8   2 -5.091872E+06  9.452463E+04 -2.425430E+05  1.846529E+04  2.530173E+05  7.584980E+00
         8   3 -5.177394E+06 -4.366449E+05 -5.662156E+05  7.088016E+04  3.851878E+05  4.432798E+01
         8   4 -5.176266E+06  1.657139E+04 -1.576644E+05 -4.122657E-08  1.208519E+05 -3.611430E-10
         8   5 -5.091872E+06  9.452398E+04 -2.425431E+05 -5.027027E-09  2.530173E+05  2.474868E-09
         8   6 -5.177400E+06 -4.366545E+05 -5.662170E+05  3.217870E-09  3.851878E+05  6.200449E-10
         8   7 -5.176265E+06  1.657358E+04 -1.576641E+05  3.395586E+04  1.208519E+05  6.663059E+00
         8   8 -5.091872E+06  9.452463E+04 -2.425430E+05 -1.846529E+04  2.530173E+05 -7.584980E+00
         8   9 -5.177394E+06 -4.366449E+05 -5.662156E+05 -7.088016E+04  3.851878E+05 -4.432798E+01
         8  10 -5.176281E+06  1.656962E+04 -1.576918E+05 -3.395586E+04  2.927800E-09 -2.081323E-10
         8  11 -5.091941E+06  9.450727E+04 -2.426643E+05  1.846529E+04  3.029624E-09 -2.183935E-10
         8  12 -5.177555E+06 -4.366852E+05 -5.664968E+05  7.088015E+04 -4.508664E-10  3.069588E-10
         8  13 -5.176282E+06  1.656743E+04 -1.576921E+05 -4.121606E-08 -6.702508E-11  1.028074E-10
         8  14 -5.091941E+06  9.450662E+04 -2.426644E+05 -1.362082E-08 -8.456049E-10  6.243116E-10
         8  15 -5.177560E+06 -4.366947E+05 -5.664981E+05  2.685236E-08  7.683117E-11  2.381904E-10
         8  16 -5.176281E+06  1.656962E+04 -1.576918E+05  3.395586E+04  1.063483E-09 -3.349845E-10
         8  17 -5.091941E+06  9.450727E+04 -2.426643E+05 -1.846529E+04 -4.253609E-09  1.015220E-09
         8  18 -5.177555E+06 -4.366852E+05 -5.664968E+05 -7.088015E+04 -6.849554E-10  6.896784E-10
         8  19 -5.176265E+06  1.657358E+04 -1.576641E+05 -3.395586E+04 -1.208519E+05  6.663059E+00
         8  20 -5.091872E+06  9.452463E+04 -2.425430E+05  1.846529E+04 -2.530173E+05 -7.584980E+00
         8  21 -5.177394E+06 -4.366449E+05 -5.662156E+05  7.088016E+04 -3.851878E+05 -4.432798E+01
         8  22 -5.176266E+06  1.657139E+04 -1.576644E+05 -9.279422E-08 -1.208519E+05  6.460312E-10
         8  23 -5.091872E+06  9.452398E+04 -2.425431E+05 -4.802303E-08 -2.530173E+05 -1.334999E-09
         8  24 -5.177400E+06 -4.366545E+05 -5.662170E+05 -3.117963E-08 -3.851878E+05 -1.029001E-10
         8  25 -5.176265E+06  1.657358E+04 -1.576641E+05  3.395586E+04 -1.208519E+05 -6.663059E+00
         8  26 -5.091872E+06  9.452463E+04 -2.425430E+05 -1.846529E+04 -2.530173E+05  7.584980E+00
         8  27 -5.177394E+06 -4.366449E+05 -5.662156E+05 -7.088016E+04 -3.851878E+05  4.432798E+01
         9   1  2.254676E+06  8.048359E+06  2.148414E+06 -1.535004E+06  1.014414E+05  8.341107E+05
         9   2  1.789179E+06  6.871248E+06  1.441374E+06 -1.389433E+06  3.403702E+05  3.905803E+05
         9   3  1.470456E+06  5.792000E+06  1.058215E+06 -1.429697E+06  3.965518E+05 -5.187053E+04
         9   4  1.604054E+05 -4.824692E+05  1.704370E+05 -1.409236E+06  1.035645E+05  1.157869E+05
         9   5  5.067381E+04 -4.940003E+05  8.763416E+04 -1.316610E+06  3.418906E+05  7.229344E+04
         9   6  1.964815E+04 -4.771258E+05  5.333010E+04 -1.409764E+06  3.965444E+05  2.895457E+04
         9   7 -1.938650E+06 -8.945503E+06 -1.810504E+06 -1.285080E+06  1.054228E+05 -5.928405E+05
         9   8 -1.690841E+06 -7.806745E+06 -1.267967E+06 -1.244572E+06  3.433503E+05 -2.423514E+05
         9   9 -1.433127E+06 -6.707415E+06 -9.525778E+05 -1.389955E+06  3.965419E+05  1.089973E+05
         9  10  2.254481E+06  8.047617E+06  2.147102E+06 -1.535072E+06  3.698023E-09 -1.248715E-07
         9  11  1.789014E+06  6.871054E+06  1.440871E+06 -1.389540E+06  7.157444E-09  3.483833E-09
         9  12  1.470287E+06  5.791955E+06  1.057914E+06 -1.429681E+06  2.902187E-10  1.321710E-07
         9  13  1.603902E+05 -4.824865E+05  1.703915E+05 -1.409246E+06  1.212497E-10 -6.952810E-12
         9  14  5.054685E+04 -4.940373E+05  8.740449E+04 -1.316630E+06 -9.859450E-10 -7.311556E-11
         9  15  1.947908E+04 -4.771690E+05  5.303298E+04 -1.409773E+06  5.066664E-10 -2.118820E-10
         9  16 -1.938758E+06 -8.945888E+06 -1.811195E+06 -1.285030E+06 -3.447460E-09  1.230566E-07
         9  17 -1.690983E+06 -7.806840E+06 -1.268299E+06 -1.244505E+06  1.197559E-09 -3.745580E-09
         9  18 -1.433299E+06 -6.707470E+06 -9.528962E+05 -1.389990E+06 -3.041669E-10 -1.308021E-07
         9  19  2.254676E+06  8.048359E+06  2.148414E+06 -1.535004E+06 -1.014414E+05 -8.341107E+05
         9  20  1.789179E+06  6.871248E+06  1.441374E+06 -1.389433E+06 -3.403702E+05 -3.905803E+05
         9  21  1.470456E+06  5.792000E+06  1.058215E+06 -1.429697E+06 -3.965518E+05  5.187053E+04
         9  22  1.604054E+05 -4.824692E+05  1.704370E+05 -1.409236E+06 -1.035645E+05 -1.157869E+05
         9  23  5.067381E+04 -4.940003E+05  8.763416E+04 -1.316610E+06 -3.418906E+05 -7.229344E+04
         9  24  1.964815E+04 -4.771258E+05  5.333010E+04 -1.409764E+06 -3.965444E+05 -2.895457E+04
         9  25 -1.938650E+06 -8.945503E+06 -1.810504E+06 -1.285080E+06 -1.054228E+05  5.928405E+05
         9  26 -1.690841E+06 -7.806745E+06 -1.267967E+06 -1.244572E+06 -3.433503E+05  2.423514E+05
         9  27 -1.433127E+06 -6.707415E+06 -9.525778E+05 -1.389955E+06 -3.965419E+05 -1.089973E+05
        10   1  1.299446E+06  5.070768E+06  9.114302E+05 -1.438310E+06  3.677400E+05 -6.247502E+04
        10   2  1.027761E+06  3.936389E+06  6.914326E+05 -1.329700E+06  3.184300E+05 -1.287392E+05
        10   3  7.780855E+05  2.817148E+06  5.197979E+05 -1.420101E+06  2.469677E+05 -1.951235E+05
        10   4  1.866858E+04 -4.806556E+05  4.413257E+04 -1.412715E+06  3.676145E+05  2.130629E+04
        10   5  1.483856E+04 -4.817815E+05  3.595405E+04 -1.313171E+06  3.178904E+05  3.265114E+03
        10   6  2.479479E+04 -4.773104E+05  4.285203E+04 -1.412717E+06  2.459326E+05 -1.500917E+04
        10   7 -1.263615E+06 -6.001475E+06 -8.238778E+05 -1.387288E+06  3.674950E+05  1.043705E+05
        10   8 -9.989884E+05 -4.880365E+06 -6.198241E+05 -1.296719E+06  3.173551E+05  1.343725E+05
        10   9 -7.289763E+05 -3.760778E+06 -4.341481E+05 -1.405346E+06  2.448978E+05  1.641929E+05
        10  10  1.299299E+06  5.070728E+06  9.111690E+05 -1.438291E+06 -2.150571E-09  4.850902E-09
        10  11  1.027648E+06  3.936344E+06  6.912115E+05 -1.329668E+06 -3.106185E-09  3.408437E-09
        10  12  7.780100E+05  2.817091E+06  5.196126E+05 -1.420062E+06 -2.683412E-09  2.108124E-09
        10  13  1.852336E+04 -4.806924E+05  4.387774E+04 -1.412722E+06 -2.903766E-09 -1.396457E-10
        10  14  1.473007E+04 -4.818086E+05  3.576417E+04 -1.313172E+06  3.020999E-09 -7.856763E-11
        10  15  2.472981E+04 -4.773269E+05  4.273802E+04 -1.412714E+06  6.991246E-10 -1.557390E-10
        10  16 -1.263763E+06 -6.001523E+06 -8.241526E+05 -1.387319E+06 -3.219286E-09 -5.110803E-09
        10  17 -9.991016E+05 -4.880411E+06 -6.200479E+05 -1.296753E+06  5.184748E-10 -3.582448E-09
        10  18 -7.290481E+05 -3.760823E+06 -4.343122E+05 -1.405379E+06 -4.832098E-09 -2.616479E-09
        10  19  1.299446E+06  5.070768E+06  9.114302E+05 -1.438310E+06 -3.677400E+05  6.247502E+04
        10  20  1.027761E+06  3.936389E+06  6.914326E+05 -1.329700E+06 -3.184300E+05  1.287392E+05
        10  21  7.780855E+05  2.817148E+06  5.197979E+05 -1.420101E+06 -2.469677E+05  1.951235E+05
        10  22  1.866858E+04 -4.806556E+05  4.413257E+04 -1.412715E+06 -3.676145E+05 -2.130629E+04
        10  23  1.483856E+04 -4.817815E+05  3.595405E+04 -1.313171E+06 -3.178904E+05 -3.265114E+03
        10  24  2.479479E+04 -4.773104E+05  4.285203E+04 -1.412717E+06 -2.459326E+05  1.500917E+04
        10  25 -1.263615E+06 -6.001475E+06 -8.238778E+05 -1.387288E+06 -3.674950E+05 -1.043705E+05
        10  26 -9.989884E+05 -4.880365E+06 -6.198241E+05 -1.296719E+06 -3.173551E+05 -1.343725E+05
        10  27 -7.289763E+05 -3.760778E+06 -4.341481E+05 -1.405346E+06 -2.448978E+05 -1.641929E+05
        11   1  6.203266E+05  2.115717E+06  4.212925E+05 -1.423135E+06  1.977895E+05 -2.028287E+05
        11   2  3.957362E+05  9.795295E+05  2.914193E+05 -1.268113E+06  1.137596E+05 -2.502977E+05
        11   3  2.423958E+05 -1.331786E+05  2.097097E+05 -1.313677E+06  2.765244E+04 -2.977726E+05
        11   4  2.900577E+04 -4.730353E+05  5.093254E+04 -1.413087E+06  1.966588E+05 -2.244098E+04
        11   5  6.248948E+04 -4.831295E+05  8.349708E+04 -1.312454E+06  1.125400E+05 -6.552047E+04
        11   6  1.665373E+05 -4.718825E+05  1.610873E+05 -1.412336E+06  2.635014E+04 -1.086790E+05
        11   7 -5.626018E+05 -3.054958E+06 -3.194059E+05 -1.403066E+06  1.955307E+05  1.572287E+05
        11   8 -2.708269E+05 -1.943547E+06 -1.243263E+05 -1.356681E+06  1.112920E+05  1.188408E+05
        11   9  9.073012E+04 -8.103720E+05  1.126029E+05 -1.510939E+06  2.498721E+04  8.031584E+04
        11  10  6.202738E+05  2.115662E+06  4.211424E+05 -1.423103E+06 -1.780241E-10  6.304121E-09
        11  11  3.957056E+05  9.794589E+05  2.912777E+05 -1.268090E+06  1.288587E-10  3.172887E-09
        11  12  2.423712E+05 -1.332740E+05  2.095417E+05 -1.313670E+06 -2.007710E-09 -4.827953E-10
        11  13  2.896413E+04 -4.730462E+05  5.085899E+04 -1.413084E+06 -1.385971E-09 -2.379333E-10
        11  14  6.247475E+04 -4.831375E+05  8.346528E+04 -1.312448E+06 -1.066781E-10 -8.805167E-12
        11  15  1.665334E+05 -4.718954E+05  1.610638E+05 -1.412334E+06  4.378585E-10 -5.991675E-12
        11  16 -5.626496E+05 -3.054995E+06 -3.195248E+05 -1.403091E+06 -2.596677E-09 -6.785222E-09
        11  17 -2.708440E+05 -1.943566E+06 -1.243763E+05 -1.356692E+06 -3.012188E-10 -3.133429E-09
        11  18  9.072771E+04 -8.103791E+05  1.125895E+05 -1.510941E+06  1.624993E-09  7.074064E-10
        11  19  6.203266E+05  2.115717E+06  4.212925E+05 -1.423135E+06 -1.977895E+05  2.028287E+05
        11  20  3.957362E+05  9.795295E+05  2.914193E+05 -1.268113E+06 -1.137596E+05  2.502977E+05
        11  21  2.423958E+05 -1.331786E+05  2.097097E+05 -1.313677E+06 -2.765244E+04  2.977726E+05
        11  22  2.900577E+04 -4.730353E+05  5.093254E+04 -1.413087E+06 -1.966588E+05  2.244098E+04
        11  23  6.248948E+04 -4.831295E+05  8.349708E+04 -1.312454E+06 -1.125400E+05  6.552047E+04
        11  24  1.665373E+05 -4.718825E+05  1.610873E+05 -1.412336E+06 -2.635014E+04  1.086790E+05
        11  25 -5.626018E+05 -3.054958E+06 -3.194059E+05 -1.403066E+06 -1.955307E+05 -1.572287E+05
        11  26 -2.708269E+05 -1.943547E+06 -1.243263E+05 -1.356681E+06 -1.112920E+05 -1.188408E+05
        11  27  9.073012E+04 -8.103720E+05  1.126029E+05 -1.510939E+06 -2.498721E+04 -8.031584E+04
        12   1 -5.906267E+06 -1.748142E+06 -1.136152E+06 -2.049173E+06 -6.460790E+05 -2.382417E+05
        12   2 -5.705372E+06 -7.814310E+05 -5.235513E+05 -2.194254E+06 -4.163167E+05 -1.453615E+05
        12   3 -5.869104E+06 -8.438866E+05 -3.560527E+05 -2.126653E+06 -1.834063E+05 -6.085478E+04
        12   4 -5.573731E+06 -1.482851E+06 -1.016524E+06 -1.815746E+06 -6.433631E+05 -2.374081E+05
        12   5 -5.339869E+06 -6.065503E+05 -4.167456E+05 -2.057276E+06 -4.159425E+05 -1.452531E+05