
 stresses (elem, integ.pnt.,sxx,syy,szz,sxy,sxz,syz) for set ELALL and time  0.1000000E+01

         1   1  2.792653E+06  1.018207E+07  2.649993E+06 -1.925461E+06  1.281217E+05  1.009809E+06
         1   2  2.253239E+06  8.687180E+06  1.789443E+06 -1.767534E+06  4.317864E+05  4.630797E+05
         1   3  1.866729E+06  7.307280E+06  1.320631E+06 -1.843351E+06  5.043527E+05 -8.195650E+04
         1   4  1.259893E+05 -6.945122E+05  1.321587E+05 -1.811124E+06  1.315160E+05  8.673017E+04
         1   5  3.995313E+04 -7.030126E+05  6.994434E+04 -1.694535E+06  4.342529E+05  5.310520E+04
         1   6  1.966838E+04 -6.858256E+05  4.683817E+04 -1.811654E+06  5.043499E+05  1.973619E+04
         1   7 -2.548474E+06 -1.146108E+07 -2.390441E+06 -1.698549E+06  1.346224E+05 -8.205019E+05
         1   8 -2.178214E+06 -1.000796E+07 -1.652539E+06 -1.622462E+06  4.366516E+05 -3.509014E+05
         1   9 -1.830572E+06 -8.615832E+06 -1.228584E+06 -1.780206E+06  5.043570E+05  1.201772E+05
         1  10  2.792366E+06  1.018099E+07  2.648074E+06 -1.925565E+06 -3.698247E-09 -2.352247E-08
         1  11  2.252981E+06  8.686901E+06  1.788693E+06 -1.767694E+06 -1.160894E-08  1.090358E-08
         1  12  1.866454E+06  7.307204E+06  1.320141E+06 -1.843318E+06 -4.192472E-09  4.612974E-08
         1  13  1.259687E+05 -6.945249E+05  1.321119E+05 -1.811134E+06  4.990207E-10 -1.923261E-11
         1  14  3.974987E+04 -7.030663E+05  6.958451E+04 -1.694553E+06 -3.172687E-09 -4.724062E-11
         1  15  1.939519E+04 -6.858942E+05  4.635946E+04 -1.811663E+06  1.669005E-08 -7.312810E-11
         1  16 -2.548678E+06 -1.146182E+07 -2.391762E+06 -1.698460E+06 -1.746070E-09  2.297511E-08
         1  17 -2.178452E+06 -1.000814E+07 -1.653130E+06 -1.622339E+06 -2.039277E-09 -1.069156E-08
         1  18 -1.830850E+06 -8.615916E+06 -1.229090E+06 -1.780255E+06 -4.949623E-09 -4.556307E-08
         1  19  2.792653E+06  1.018207E+07  2.649993E+06 -1.925461E+06 -1.281217E+05 -1.009809E+06
         1  20  2.253239E+06  8.687180E+06  1.789443E+06 -1.767534E+06 -4.317864E+05 -4.630797E+05
         1  21  1.866729E+06  7.307280E+06  1.320631E+06 -1.843351E+06 -5.043527E+05  8.195650E+04
         1  22  1.259893E+05 -6.945122E+05  1.321587E+05 -1.811124E+06 -1.315160E+05 -8.673017E+04
         1  23  3.995313E+04 -7.030126E+05  6.994434E+04 -1.694535E+06 -4.342529E+05 -5.310520E+04
         1  24  1.966838E+04 -6.858256E+05  4.683817E+04 -1.811654E+06 -5.043499E+05 -1.973619E+04
         1  25 -2.548474E+06 -1.146108E+07 -2.390441E+06 -1.698549E+06 -1.346224E+05  8.205019E+05
         1  26 -2.178214E+06 -1.000796E+07 -1.652539E+06 -1.622462E+06 -4.366516E+05  3.509014E+05
         1  27 -1.830572E+06 -8.615832E+06 -1.228584E+06 -1.780206E+06 -5.043570E+05 -1.201772E+05
         2   1  1.651652E+06  6.391795E+06  1.140237E+06 -1.851608E+06  4.682644E+05 -9.439113E+04
         2   2  1.311467E+06  4.946627E+06  8.704095E+05 -1.714634E+06  4.060599E+05 -1.774656E+05
         2   3  9.987551E+05  3.520824E+06  6.611124E+05 -1.828236E+06  3.154830E+05 -2.607338E+05
         2   4  2.073017E+04 -6.875812E+05  4.145481E+04 -1.815426E+06  4.680629E+05  1.251566E+04
         2   5  2.144885E+04 -6.881530E+05  4.086616E+04 -1.690043E+06  4.051809E+05 -8.014132E+03
         2   6  3.900725E+04 -6.821413E+05  5.767007E+04 -1.815367E+06  3.137929E+05 -2.891754E+04
         2   7 -1.612626E+06 -7.717200E+06 -1.058455E+06 -1.779526E+06  4.678720E+05  1.182582E+05
         2   8 -1.270030E+06 -6.291067E+06 -7.891396E+05 -1.665591E+06  4.043095E+05  1.599717E+05
         2   9 -9.215158E+05 -4.867206E+06 -5.458432E+05 -1.802531E+06  3.121043E+05  2.014030E+05
         2  10  1.651414E+06  6.391726E+06  1.139809E+06 -1.851573E+06 -8.704885E-09 -8.433973E-08
         2  11  1.311282E+06  4.946550E+06  8.700419E+05 -1.714576E+06  5.759506E-09  4.205210E-08
         2  12  9.986305E+05  3.520725E+06  6.607995E+05 -1.828171E+06  2.992640E-09  1.617487E-07
         2  13  2.049493E+04 -6.876401E+05  4.104288E+04 -1.815431E+06  3.902757E-09 -5.012568E-11
         2  14  2.127262E+04 -6.881970E+05  4.055769E+04 -1.690041E+06 -7.764835E-09 -7.985800E-11
         2  15  3.890138E+04 -6.821686E+05  5.748366E+04 -1.815360E+06 -1.979370E-08 -3.450887E-10
         2  16 -1.612865E+06 -7.717274E+06 -1.058893E+06 -1.779571E+06 -1.005224E-08  8.359206E-08
         2  17 -1.270213E+06 -6.291139E+06 -7.894960E+05 -1.665643E+06 -2.566070E-09 -4.214336E-08
         2  18 -9.216316E+05 -4.867276E+06 -5.461038E+05 -1.802582E+06  5.148535E-09 -1.609417E-07
         2  19  1.651652E+06  6.391795E+06  1.140237E+06 -1.851608E+06 -4.682644E+05  9.439113E+04
         2  20  1.311467E+06  4.946627E+06  8.704095E+05 -1.714634E+06 -4.060599E+05  1.774656E+05
         2  21  9.987551E+05  3.520824E+06  6.611124E+05 -1.828236E+06 -3.154830E+05  2.607338E+05
         2  22  2.073017E+04 -6.875812E+05  4.145481E+04 -1.815426E+06 -4.680629E+05 -1.251566E+04
         2  23  2.144885E+04 -6.881530E+05  4.086616E+04 -1.690043E+06 -4.051809E+05  8.014132E+03
         2  24  3.900725E+04 -6.821413E+05  5.767007E+04 -1.815367E+06 -3.137929E+05  2.891754E+04
         2  25 -1.612626E+06 -7.717200E+06 -1.058455E+06 -1.779526E+06 -4.678720E+05 -1.182582E+05
         2  26 -1.270030E+06 -6.291067E+06 -7.891396E+05 -1.665591E+06 -4.043095E+05 -1.599717E+05
         2  27 -9.215158E+05 -4.867206E+06 -5.458432E+05 -1.802531E+06 -3.121043E+05 -2.014030E+05
         3   1  8.000426E+05  2.629816E+06  5.410138E+05 -1.831689E+06  2.529630E+05 -2.714719E+05
         3   2  5.230249E+05  1.180649E+06  3.885645E+05 -1.621698E+06  1.460847E+05 -3.419214E+05
         3   3  3.530131E+05 -2.333217E+05  3.078807E+05 -1.664306E+06  3.634085E+04 -4.123617E+05
         3   4  4.598735E+04 -6.752605E+05  7.204101E+04 -1.815858E+06  2.511157E+05 -3.915263E+04
         3   5  9.767126E+04 -6.902534E+05  1.246121E+05 -1.688907E+06  1.440969E+05 -1.034996E+05
         3   6  2.554337E+05 -6.733613E+05  2.445553E+05 -1.814409E+06  3.422763E+04 -1.679751E+05
         3   7 -7.085311E+05 -3.969194E+06 -3.968847E+05 -1.800079E+06  2.492733E+05  1.919875E+05
         3   8 -3.277888E+05 -2.557479E+06 -1.391715E+05 -1.755894E+06  1.420534E+05  1.342362E+05
         3   9  1.579641E+05 -1.113027E+06  1.814640E+05 -1.964402E+06  3.199511E+04  7.624560E+04
         3  10  7.999545E+05  2.629720E+06  5.407566E+05 -1.831633E+06  5.682701E-09 -6.788674E-08
         3  11  5.229709E+05  1.180518E+06  3.883058E+05 -1.621658E+06 -4.605642E-09 -3.993468E-08
         3  12  3.529660E+05 -2.335046E+05  3.075587E+05 -1.664294E+06 -1.796087E-09 -5.636272E-09
         3  13  4.591930E+04 -6.752791E+05  7.191982E+04 -1.815850E+06 -2.532600E-08 -1.891360E-10
         3  14  9.764616E+04 -6.902704E+05  1.245531E+05 -1.688895E+06 -1.638753E-08 -2.912903E-10
         3  15  2.554249E+05 -6.733919E+05  2.445001E+05 -1.814404E+06 -7.126675E-09 -2.279374E-10
         3  16 -7.086079E+05 -3.969251E+06 -3.970718E+05 -1.800118E+06  2.904977E-09  6.718380E-08
         3  17 -3.278154E+05 -2.557504E+06 -1.392436E+05 -1.755910E+06  2.395827E-09  4.021185E-08
         3  18  1.579614E+05 -1.113033E+06  1.814511E+05 -1.964404E+06 -1.018495E-09  5.605011E-09
         3  19  8.000426E+05  2.629816E+06  5.410138E+05 -1.831689E+06 -2.529630E+05  2.714719E+05
         3  20  5.230249E+05  1.180649E+06  3.885645E+05 -1.621698E+06 -1.460847E+05  3.419214E+05
         3  21  3.530131E+05 -2.333217E+05  3.078807E+05 -1.664306E+06 -3.634085E+04  4.123617E+05
         3  22  4.598735E+04 -6.752605E+05  7.204101E+04 -1.815858E+06 -2.511157E+05  3.915263E+04
         3  23  9.767126E+04 -6.902534E+05  1.246121E+05 -1.688907E+06 -1.440969E+05  1.034996E+05
         3  24  2.554337E+05 -6.733613E+05  2.445553E+05 -1.814409E+06 -3.422763E+04  1.679751E+05
         3  25 -7.085311E+05 -3.969194E+06 -3.968847E+05 -1.800079E+06 -2.492733E+05 -1.919875E+05
         3  26 -3.277888E+05 -2.557479E+06 -1.391715E+05 -1.755894E+06 -1.420534E+05 -1.342362E+05
         3  27  1.579641E+05 -1.113027E+06  1.814640E+05 -1.964402E+06 -3.199511E+04 -7.624560E+04
         4   1 -9.019072E+06 -2.691035E+06 -1.819506E+06 -3.174209E+06 -1.219890E+06 -4.598066E+05
         4   2 -8.590415E+06 -8.151752E+05 -6.379155E+05 -3.443155E+06 -7.811419E+05 -3.035496E+05
         4   3 -8.787969E+06 -1.033704E+06 -3.138216E+05 -3.390317E+06 -3.440681E+05 -1.426269E+05
         4   4 -9.589152E+06 -2.721165E+06 -1.940379E+06 -3.136943E+06 -1.220823E+06 -4.606251E+05
         4   5 -9.175972E+06 -9.897752E+05 -7.901563E+05 -3.552922E+06 -7.816030E+05 -3.038011E+05
         4   6 -9.389602E+06 -1.354025E+06 -4.983603E+05 -3.646978E+06 -3.440651E+05 -1.425617E+05
         4   7 -1.015884E+07 -2.751239E+06 -2.061247E+06 -3.099745E+06 -1.221754E+06 -4.614441E+05
         4   8 -9.761192E+06 -1.164382E+06 -9.424237E+05 -3.662608E+06 -7.820632E+05 -3.040526E+05
         4   9 -9.990858E+06 -1.674204E+06 -6.829353E+05 -3.903375E+06 -3.440620E+05 -1.424965E+05
         4  10 -9.020749E+06 -2.691673E+06 -1.822753E+06 -3.174666E+06 -8.711526E-10  2.333536E-10
         4  11 -8.591104E+06 -8.154426E+05 -6.392572E+05 -3.443347E+06  8.004350E-09 -2.051542E-10
         4  12 -8.788103E+06 -1.033759E+06 -3.140866E+05 -3.390357E+06  5.115662E-09 -1.720279E-09
         4  13 -9.590833E+06 -2.721805E+06 -1.943635E+06 -3.137401E+06  4.558848E-09  2.674973E-10
         4  14 -9.176662E+06 -9.900432E+05 -7.915009E+05 -3.553115E+06  1.848555E-09  4.056428E-10
         4  15 -9.389737E+06 -1.354079E+06 -4.986256E+05 -3.647018E+06  3.854729E-09 -2.106779E-09
         4  16 -1.016053E+07 -2.751880E+06 -2.064511E+06 -3.100204E+06  2.047409E-09  3.809581E-10
         4  17 -9.761884E+06 -1.164651E+06 -9.437713E+05 -3.662802E+06  1.930131E-09  1.617829E-09
         4  18 -9.990993E+06 -1.674259E+06 -6.832008E+05 -3.903415E+06 -1.939903E-09 -3.976058E-10
         4  19 -9.019072E+06 -2.691035E+06 -1.819506E+06 -3.174209E+06  1.219890E+06  4.598066E+05
         4  20 -8.590415E+06 -8.151752E+05 -6.379155E+05 -3.443155E+06  7.811419E+05  3.035496E+05
         4  21 -8.787969E+06 -1.033704E+06 -3.138216E+05 -3.390317E+06  3.440681E+05  1.426269E+05
         4  22 -9.589152E+06 -2.721165E+06 -1.940379E+06 -3.136943E+06  1.220823E+06  4.606251E+05
         4  23 -9.175972E+06 -9.897752E+05 -7.901563E+05 -3.552922E+06  7.816030E+05  3.038011E+05
         4  24 -9.389602E+06 -1.354025E+06 -4.983603E+05 -3.646978E+06  3.440651E+05  1.425617E+05
         4  25 -1.015884E+07 -2.751239E+06 -2.061247E+06 -3.099745E+06  1.221754E+06  4.614441E+05
         4  26 -9.761192E+06 -1.164382E+06 -9.424237E+05 -3.662608E+06  7.820632E+05  3.040526E+05
         4  27 -9.990858E+06 -1.674204E+06 -6.829353E+05 -3.903375E+06  3.440620E+05  1.424965E+05
         5   1 -8.301532E+06 -1.169865E+06 -1.223475E+05 -3.220920E+06 -2.680607E+05 -1.163499E+05
         5   2 -8.243762E+06 -9.046665E+05  1.039706E+05 -3.269356E+06 -1.696017E+05 -8.276294E+04
         5   3 -8.285632E+06 -9.324663E+05  1.817197E+05 -3.256037E+06 -7.319648E+04 -4.375241E+04
         5   4 -9.358517E+06 -1.546917E+06 -4.098958E+05 -3.482401E+06 -2.688788E+05 -1.166759E+05
         5   5 -9.293515E+06 -1.300302E+06 -1.854245E+05 -3.550769E+06 -1.695016E+05 -8.272939E+04
         5   6 -9.328528E+06 -1.347178E+06 -1.104574E+05 -3.557335E+06 -7.217841E+04 -4.336295E+04
         5   7 -1.041442E+07 -1.923939E+06 -6.975441E+05 -3.743489E+06 -2.696950E+05 -1.170013E+05
         5   8 -1.034219E+07 -1.695880E+06 -4.749212E+05 -3.831748E+06 -1.694014E+05 -8.269582E+04
         5   9 -1.037036E+07 -1.761801E+06 -4.027377E+05 -3.858159E+06 -7.116214E+04 -4.297423E+04
         5  10 -8.301614E+06 -1.169900E+06 -1.225105E+05 -3.220945E+06 -6.086598E-09 -4.315730E-09
         5  11 -8.243796E+06 -9.046818E+05  1.039027E+05 -3.269367E+06 -1.146081E-08 -4.348951E-10
         5  12 -8.285638E+06 -9.324698E+05  1.817059E+05 -3.256039E+06 -5.260554E-09  1.554802E-09
         5  13 -9.358600E+06 -1.546952E+06 -4.100600E+05 -3.482427E+06  7.048119E-10 -2.453727E-09
         5  14 -9.293548E+06 -1.300318E+06 -1.854925E+05 -3.550780E+06 -4.896448E-09 -2.399058E-09
         5  15 -9.328534E+06 -1.347182E+06 -1.104710E+05 -3.557338E+06 -1.632535E-09  7.235126E-10
         5  16 -1.041450E+07 -1.923974E+06 -6.977096E+05 -3.743515E+06  8.101991E-09 -3.760437E-09
         5  17 -1.034223E+07 -1.695896E+06 -4.749893E+05 -3.831759E+06  4.596536E-09 -8.896282E-10
         5  18 -1.037037E+07 -1.761804E+06 -4.027510E+05 -3.858162E+06  6.294224E-09  4.026435E-09
         5  19 -8.301532E+06 -1.169865E+06 -1.223475E+05 -3.220920E+06  2.680607E+05  1.163499E+05
         5  20 -8.243762E+06 -9.046665E+05  1.039706E+05 -3.269356E+06  1.696017E+05  8.276294E+04
         5  21 -8.285632E+06 -9.324663E+05  1.817197E+05 -3.256037E+06  7.319648E+04  4.375241E+04
         5  22 -9.358517E+06 -1.546917E+06 -4.098958E+05 -3.482401E+06  2.688788E+05  1.166759E+05
         5  23 -9.293515E+06 -1.300302E+06 -1.854245E+05 -3.550769E+06  1.695016E+05  8.272939E+04
         5  24 -9.328528E+06 -1.347178E+06 -1.104574E+05 -3.557335E+06  7.217841E+04  4.336295E+04
         5  25 -1.041442E+07 -1.923939E+06 -6.975441E+05 -3.743489E+06  2.696950E+05  1.170013E+05
         5  26 -1.034219E+07 -1.695880E+06 -4.749212E+05 -3.831748E+06  1.694014E+05  8.269582E+04
         5  27 -1.037036E+07 -1.761801E+06 -4.027377E+05 -3.858159E+06  7.116214E+04  4.297423E+04
         6   1 -8.592714E+06 -1.055065E+06  1.222459E+05 -3.292364E+06 -5.669340E+04 -3.564235E+04
         6   2 -8.617922E+06 -1.131768E+06  1.381098E+05 -3.412017E+06 -3.584094E+04 -2.522762E+04
         6   3 -8.805790E+06 -1.102316E+06  1.270292E+05 -3.356989E+06 -1.621753E+04 -1.166301E+04
         6   4 -9.355078E+06 -1.344982E+06 -8.839471E+04 -3.499338E+06 -5.653232E+04 -3.558228E+04
         6   5 -9.271426E+06 -1.383180E+06 -4.310400E+04 -3.592311E+06 -3.507711E+04 -2.493479E+04
         6   6 -9.350606E+06 -1.315365E+06 -2.527169E+04 -3.510592E+06 -1.484736E+04 -1.113441E+04
         6   7 -1.011688E+07 -1.634867E+06 -2.990899E+05 -3.706081E+06 -5.637142E+04 -3.552228E+04
         6   8 -9.924515E+06 -1.634565E+06 -2.243581E+05 -3.772432E+06 -3.431415E+04 -2.464229E+04
         6   9 -9.895134E+06 -1.528394E+06 -1.776010E+05 -3.664072E+06 -1.347853E+04 -1.060635E+04
         6  10 -8.592718E+06 -1.055067E+06  1.222373E+05 -3.292366E+06 -4.287918E-09  1.125591E-09
         6  11 -8.617924E+06 -1.131770E+06  1.381061E+05 -3.412018E+06 -9.365794E-10 -3.568050E-09
         6  12 -8.805790E+06 -1.102316E+06  1.270285E+05 -3.356989E+06  2.318632E-09  2.730164E-09
         6  13 -9.355081E+06 -1.344984E+06 -8.840324E+04 -3.499340E+06  3.230533E-09 -4.798416E-10
         6  14 -9.271427E+06 -1.383181E+06 -4.310754E+04 -3.592312E+06  7.885117E-09 -8.155344E-10
         6  15 -9.350607E+06 -1.315366E+06 -2.527235E+04 -3.510593E+06 -8.221188E-10  2.184532E-09
         6  16 -1.011688E+07 -1.634869E+06 -2.990984E+05 -3.706083E+06  3.362877E-09 -2.450547E-09
         6  17 -9.924516E+06 -1.634566E+06 -2.243615E+05 -3.772432E+06  2.294012E-09 -2.992277E-09
         6  18 -9.895134E+06 -1.528394E+06 -1.776016E+05 -3.664072E+06  2.210018E-10 -1.038906E-09
         6  19 -8.592714E+06 -1.055065E+06  1.222459E+05 -3.292364E+06  5.669340E+04  3.564235E+04
         6  20 -8.617922E+06 -1.131768E+06  1.381098E+05 -3.412017E+06  3.584094E+04  2.522762E+04
         6  21 -8.805790E+06 -1.102316E+06  1.270292E+05 -3.356989E+06  1.621753E+04  1.166301E+04
         6  22 -9.355078E+06 -1.344982E+06 -8.839471E+04 -3.499338E+06  5.653232E+04  3.558228E+04
         6  23 -9.271426E+06 -1.383180E+06 -4.310400E+04 -3.592311E+06  3.507711E+04  2.493479E+04
         6  24 -9.350606E+06 -1.315365E+06 -2.527169E+04 -3.510592E+06  1.484736E+04  1.113441E+04
         6  25 -1.011688E+07 -1.634867E+06 -2.990899E+05 -3.706081E+06  5.637142E+04  3.552228E+04
         6  26 -9.924515E+06 -1.634565E+06 -2.243581E+05 -3.772432E+06  3.431415E+04  2.464229E+04
         6  27 -9.895134E+06 -1.528394E+06 -1.776010E+05 -3.664072E+06  1.347853E+04  1.060635E+04
         7   1 -9.518048E+06 -1.375685E+06 -6.562162E+04 -3.545003E+06 -1.381973E+04 -6.255208E+03
         7   2 -9.556444E+06 -1.510901E+06 -9.272720E+04 -3.682466E+06 -9.595457E+03  1.417883E+03
         7   3 -9.779188E+06 -1.472465E+06 -1.265118E+05 -3.617708E+06 -4.829798E+03  7.701101E+03
         7   4 -9.357181E+06 -1.312726E+06 -2.030813E+04 -3.499700E+06 -1.263511E+04 -5.797684E+03
         7   5 -9.264805E+06 -1.398058E+06 -1.168682E+04 -3.601424E+06 -8.686782E+03  1.768020E+03
         7   6 -9.356729E+06 -1.309687E+06 -9.519204E+03 -3.500940E+06 -4.195740E+03  7.944792E+03
         7   7 -9.196289E+06 -1.249765E+06  2.500278E+04 -3.454387E+06 -1.145015E+04 -5.340024E+03
         7   8 -8.973084E+06 -1.285209E+06  6.934551E+04 -3.520347E+06 -7.777628E+03  2.118342E+03
         7   9 -8.934096E+06 -1.146897E+06  1.074568E+05 -3.384099E+06 -3.561197E+03  8.188668E+03
         7  10 -9.518049E+06 -1.375686E+06 -6.562206E+04 -3.545003E+06  3.575411E-09  3.038430E-09
         7  11 -9.556444E+06 -1.510901E+06 -9.272738E+04 -3.682466E+06  4.602766E-09 -6.814628E-09
         7  12 -9.779188E+06 -1.472465E+06 -1.265120E+05 -3.617708E+06 -2.056656E-09  3.296077E-09
         7  13 -9.357181E+06 -1.312726E+06 -2.030850E+04 -3.499700E+06 -1.695388E-10  2.019759E-09
         7  14 -9.264805E+06 -1.398058E+06 -1.168697E+04 -3.601424E+06 -3.253355E-09 -5.189354E-09
         7  15 -9.356729E+06 -1.309687E+06 -9.519355E+03 -3.500940E+06 -3.384061E-09  2.161400E-09
         7  16 -9.196289E+06 -1.249765E+06  2.500247E+04 -3.454387E+06  2.054963E-09 -3.170919E-09
         7  17 -8.973084E+06 -1.285209E+06  6.934538E+04 -3.520347E+06  2.202196E-09  5.166436E-09
         7  18 -8.934096E+06 -1.146897E+06  1.074567E+05 -3.384099E+06 -2.996203E-10 -2.532410E-09
         7  19 -9.518048E+06 -1.375685E+06 -6.562162E+04 -3.545003E+06  1.381973E+04  6.255208E+03
         7  20 -9.556444E+06 -1.510901E+06 -9.272720E+04 -3.682466E+06  9.595457E+03 -1.417883E+03
         7  21 -9.779188E+06 -1.472465E+06 -1.265118E+05 -3.617708E+06  4.829798E+03 -7.701101E+03
         7  22 -9.357181E+06 -1.312726E+06 -2.030813E+04 -3.499700E+06  1.263511E+04  5.797684E+03
         7  23 -9.264805E+06 -1.398058E+06 -1.168682E+04 -3.601424E+06  8.686782E+03 -1.768020E+03
         7  24 -9.356729E+06 -1.309687E+06 -9.519204E+03 -3.500940E+06  4.195740E+03 -7.944792E+03
         7  25 -9.196289E+06 -1.249765E+06  2.500278E+04 -3.454387E+06  1.145015E+04  5.340024E+03
         7  26 -8.973084E+06 -1.285209E+06  6.934551E+04 -3.520347E+06  7.777628E+03 -2.118342E+03
         7  27 -8.934096E+06 -1.146897E+06  1.074568E+05 -3.384099E+06  3.561197E+03 -8.188668E+03
         8   1 -1.027133E+07 -1.700133E+06 -2.714367E+05 -3.791455E+06 -5.069194E+03  1.090180E+04
         8   2 -1.028866E+07 -1.745679E+06 -2.860512E+05 -3.837291E+06  2.525245E+02  1.738210E+04
         8   3 -1.036228E+07 -1.735279E+06 -3.056274E+05 -3.811403E+06  7.367309E+03  1.919123E+04
         8   4 -9.328469E+06 -1.335719E+06 -8.960589E+03 -3.530105E+06 -3.831887E+03  1.137578E+04
         8   5 -9.300733E+06 -1.365753E+06 -1.188857E+04 -3.565251E+06  5.684164E+02  1.750087E+04
         8   6 -9.329077E+06 -1.339650E+06 -1.902741E+04 -3.528682E+06  6.760945E+03  1.895860E+04
         8   7 -8.384746E+06 -9.712475E+05  2.534314E+05 -3.268388E+06 -2.592472E+03  1.185058E+04
         8   8 -8.311855E+06 -9.857661E+05  2.621825E+05 -3.292811E+06  8.848628E+02  1.761984E+04
         8   9 -8.294835E+06 -9.439567E+05  2.674730E+05 -3.245527E+06  6.153427E+03  1.872555E+04
         8  10 -1.027133E+07 -1.700133E+06 -2.714369E+05 -3.791455E+06  8.345351E-09  5.133365E-09
         8  11 -1.028866E+07 -1.745679E+06 -2.860517E+05 -3.837291E+06  4.281321E-09  3.279368E-09
         8  12 -1.036228E+07 -1.735280E+06 -3.056282E+05 -3.811403E+06 -3.357479E-09  6.815157E-10
         8  13 -9.328469E+06 -1.335719E+06 -8.960858E+03 -3.530105E+06  1.341841E-09  3.260544E-09
         8  14 -9.300733E+06 -1.365753E+06 -1.188914E+04 -3.565251E+06 -4.064110E-09 -2.535565E-09
         8  15 -9.329077E+06 -1.339650E+06 -1.902818E+04 -3.528682E+06 -3.888040E-10  1.170411E-09
         8  16 -8.384746E+06 -9.712477E+05  2.534311E+05 -3.268388E+06 -4.483734E-09 -3.612645E-09
         8  17 -8.311855E+06 -9.857664E+05  2.621819E+05 -3.292811E+06  3.003094E-09 -4.388250E-10
         8  18 -8.294835E+06 -9.439571E+05  2.674722E+05 -3.245527E+06  3.258751E-09 -3.042899E-09
         8  19 -1.027133E+07 -1.700133E+06 -2.714367E+05 -3.791455E+06  5.069194E+03 -1.090180E+04
         8  20 -1.028866E+07 -1.745679E+06 -2.860512E+05 -3.837291E+06 -2.525245E+02 -1.738210E+04
         8  21 -1.036228E+07 -1.735279E+06 -3.056274E+05 -3.811403E+06 -7.367309E+03 -1.919123E+04
         8  22 -9.328469E+06 -1.335719E+06 -8.960589E+03 -3.530105E+06  3.831887E+03 -1.137578E+04
         8  23 -9.300733E+06 -1.365753E+06 -1.188857E+04 -3.565251E+06 -5.684164E+02 -1.750087E+04
         8  24 -9.329077E+06 -1.339650E+06 -1.902741E+04 -3.528682E+06 -6.760945E+03 -1.895860E+04
         8  25 -8.384746E+06 -9.712475E+05  2.534314E+05 -3.268388E+06  2.592472E+03 -1.185058E+04
         8  26 -8.311855E+06 -9.857661E+05  2.621825E+05 -3.292811E+06 -8.848628E+02 -1.761984E+04
         8  27 -8.294835E+06 -9.439567E+05  2.674730E+05 -3.245527E+06 -6.153427E+03 -1.872555E+04
         9   1 -1.021855E+07 -1.729270E+06 -2.808636E+05 -3.828799E+06  1.022458E+04  1.954554E+04
         9   2 -1.019184E+07 -1.635962E+06 -2.756560E+05 -3.743050E+06  3.237048E+04  2.696219E+04
         9   3 -1.006832E+07 -1.689818E+06 -2.962741E+05 -3.769463E+06  5.596342E+04  3.052204E+04
         9   4 -9.293341E+06 -1.373289E+06 -2.401473E+04 -3.573847E+06  1.045491E+04  1.963124E+04
         9   5 -9.343864E+06 -1.313123E+06 -4.099836E+04 -3.512830E+06  3.186068E+04  2.676820E+04
         9   6 -9.297422E+06 -1.399926E+06 -8.318623E+04 -3.563971E+06  5.470953E+04  3.004950E+04
         9   7 -8.367298E+06 -1.017254E+06  2.327538E+05 -3.318545E+06  1.068561E+04  1.971709E+04
         9   8 -8.495189E+06 -9.902431E+05  1.935921E+05 -3.282322E+06  3.135008E+04  2.657390E+04
         9   9 -8.525945E+06 -1.110003E+06  1.298462E+05 -3.358247E+06  5.345384E+04  2.957630E+04
         9  10 -1.021855E+07 -1.729271E+06 -2.808645E+05 -3.828800E+06 -4.474418E-09  3.003355E-09
         9  11 -1.019184E+07 -1.635963E+06 -2.756594E+05 -3.743051E+06 -8.924442E-10  3.502863E-09
         9  12 -1.006833E+07 -1.689820E+06 -2.962819E+05 -3.769464E+06  1.885099E-09 -4.322037E-09
         9  13 -9.293341E+06 -1.373289E+06 -2.401566E+04 -3.573848E+06 -8.943842E-10  3.161417E-09
         9  14 -9.343866E+06 -1.313124E+06 -4.100166E+04 -3.512831E+06  1.287746E-09  2.496123E-09
         9  15 -9.297426E+06 -1.399927E+06 -8.319367E+04 -3.563973E+06 -9.245243E-09 -4.543089E-09
         9  16 -8.367298E+06 -1.017255E+06  2.327529E+05 -3.318545E+06 -1.366260E-09  3.938840E-09
         9  17 -8.495190E+06 -9.902441E+05  1.935889E+05 -3.282323E+06 -8.082552E-09  3.953430E-09
         9  18 -8.525949E+06 -1.110005E+06  1.298391E+05 -3.358249E+06 -8.081946E-10 -6.350855E-10
         9  19 -1.021855E+07 -1.729270E+06 -2.808636E+05 -3.828799E+06 -1.022458E+04 -1.954554E+04
         9  20 -1.019184E+07 -1.635962E+06 -2.756560E+05 -3.743050E+06 -3.237048E+04 -2.696219E+04
         9  21 -1.006832E+07 -1.689818E+06 -2.962741E+05 -3.769463E+06 -5.596342E+04 -3.052204E+04
         9  22 -9.293341E+06 -1.373289E+06 -2.401473E+04 -3.573847E+06 -1.045491E+04 -1.963124E+04
         9  23 -9.343864E+06 -1.313123E+06 -4.099836E+04 -3.512830E+06 -3.186068E+04 -2.676820E+04
         9  24 -9.297422E+06 -1.399926E+06 -8.318623E+04 -3.563971E+06 -5.470953E+04 -3.004950E+04
         9  25 -8.367298E+06 -1.017254E+06  2.327538E+05 -3.318545E+06 -1.068561E+04 -1.971709E+04
         9  26 -8.495189E+06 -9.902431E+05  1.935921E+05 -3.282322E+06 -3.135008E+04 -2.657390E+04
         9  27 -8.525945E+06 -1.110003E+06  1.298462E+05 -3.358247E+06 -5.345384E+04 -2.957630E+04
        10   1 -9.404823E+06 -1.442487E+06 -1.382816E+05 -3.645207E+06  7.268384E+04  3.243111E+04
        10   2 -9.331802E+06 -1.244615E+06 -1.705440E+05 -3.485980E+06  1.666803E+05  6.209336E+04
        10   3 -9.187408E+06 -1.500387E+06 -3.456946E+05 -3.469994E+06  2.600923E+05  9.337270E+04
        10   4 -9.291222E+06 -1.386609E+06 -1.047070E+05 -3.601300E+06  7.154041E+04  3.200387E+04
        10   5 -9.340733E+06 -1.253991E+06 -1.741791E+05 -3.494542E+06  1.658546E+05  6.178128E+04
        10   6 -9.318980E+06 -1.575103E+06 -3.868140E+05 -3.531043E+06  2.595641E+05  9.316118E+04
        10   7 -9.177609E+06 -1.330728E+06 -7.113367E+04 -3.557384E+06  7.039674E+04  3.157647E+04
        10   8 -9.349663E+06 -1.263367E+06 -1.778141E+05 -3.503104E+06  1.650289E+05  6.146924E+04
        10   9 -9.450534E+06 -1.649810E+06 -4.279350E+05 -3.592079E+06  2.590360E+05  9.294976E+04
        10  10 -9.404829E+06 -1.442489E+06 -1.382937E+05 -3.645209E+06  3.920684E-09 -5.785213E-09
        10  11 -9.331833E+06 -1.244627E+06 -1.706045E+05 -3.485989E+06 -3.909775E-09  1.779493E-09
        10  12 -9.187484E+06 -1.500415E+06 -3.458405E+05 -3.470014E+06 -3.895511E-10 -1.002165E-09
        10  13 -9.291228E+06 -1.386612E+06 -1.047188E+05 -3.601302E+06 -4.625901E-09 -7.045147E-09
        10  14 -9.340764E+06 -1.254003E+06 -1.742390E+05 -3.494551E+06 -5.752474E-09  2.174563E-09
        10  15 -9.319056E+06 -1.575131E+06 -3.869594E+05 -3.531063E+06 -4.013448E-09  1.242537E-09
        10  16 -9.177614E+06 -1.330731E+06 -7.114505E+04 -3.557386E+06  4.170931E-09 -2.571482E-09
        10  17 -9.349694E+06 -1.263379E+06 -1.778734E+05 -3.503112E+06 -9.709329E-09 -3.354852E-09
        10  18 -9.450610E+06 -1.649838E+06 -4.280799E+05 -3.592098E+06 -4.997983E-09 -7.818168E-10
        10  19 -9.404823E+06 -1.442487E+06 -1.382816E+05 -3.645207E+06 -7.268384E+04 -3.243111E+04
        10  20 -9.331802E+06 -1.244615E+06 -1.705440E+05 -3.485980E+06 -1.666803E+05 -6.209336E+04
        10  21 -9.187408E+06 -1.500387E+06 -3.456946E+05 -3.469994E+06 -2.600923E+05 -9.337270E+04
        10  22 -9.291222E+06 -1.386609E+06 -1.047070E+05 -3.601300E+06 -7.154041E+04 -3.200387E+04
        10  23 -9.340733E+06 -1.253991E+06 -1.741791E+05 -3.494542E+06 -1.658546E+05 -6.178128E+04
        10  24 -9.318980E+06 -1.575103E+06 -3.868140E+05 -3.531043E+06 -2.595641E+05 -9.316118E+04
        10  25 -9.177609E+06 -1.330728E+06 -7.113367E+04 -3.557384E+06 -7.039674E+04 -3.157647E+04
        10  26 -9.349663E+06 -1.263367E+06 -1.778141E+05 -3.503104E+06 -1.650289E+05 -6.146924E+04
        10  27 -9.450534E+06 -1.649810E+06 -4.279350E+05 -3.592079E+06 -2.590360E+05 -9.294976E+04
        11   1 -8.543974E+06 -1.104833E+06 -2.507990E+05 -3.486297E+06  3.345567E+05  1.155081E+05
        11   2 -8.341803E+06 -6.616609E+05 -5.063147E+05 -3.294787E+06  7.449448E+05  2.645168E+05
        11   3 -8.774076E+06 -2.140486E+06 -1.566677E+06 -2.742493E+06  1.149227E+06  4.299737E+05
        11   4 -9.394817E+06 -1.342871E+06 -4.693417E+05 -3.629503E+06  3.316226E+05  1.144622E+05
        11   5 -9.172401E+06 -1.023883E+06 -7.449646E+05 -3.567627E+06  7.447328E+05  2.643661E+05
        11   6 -9.586045E+06 -2.629082E+06 -1.828523E+06 -3.144694E+06  1.151747E+06  4.305129E+05
        11   7 -1.024495E+07 -1.580929E+06 -6.879376E+05 -3.772565E+06  3.286926E+05  1.134171E+05
        11   8 -1.000232E+07 -1.386000E+06 -9.836822E+05 -3.840110E+06  7.445205E+05  2.642153E+05
        11   9 -1.039728E+07 -3.117271E+06 -2.090431E+06 -3.546310E+06  1.154263E+06  4.310480E+05
        11  10 -8.544099E+06 -1.104879E+06 -2.510382E+05 -3.486329E+06  5.013925E-09 -3.307513E-09
        11  11 -8.342425E+06 -6.618890E+05 -5.075078E+05 -3.294947E+06  2.536859E-09  1.402611E-09
        11  12 -8.775562E+06 -2.141049E+06 -1.569551E+06 -2.742895E+06  3.251378E-09 -3.825816E-10
        11  13 -9.394941E+06 -1.342915E+06 -4.695771E+05 -3.629534E+06  1.294092E-09 -9.946454E-10
        11  14 -9.173024E+06 -1.024111E+06 -7.461588E+05 -3.567787E+06 -5.258821E-09 -4.190166E-10
        11  15 -9.587540E+06 -2.629648E+06 -1.831414E+06 -3.145097E+06 -5.453756E-11  2.842940E-10
        11  16 -1.024507E+07 -1.580973E+06 -6.881692E+05 -3.772595E+06 -2.188555E-09 -1.382694E-09
        11  17 -1.000294E+07 -1.386229E+06 -9.848774E+05 -3.840270E+06  3.623794E-09  2.818156E-09
        11  18 -1.039878E+07 -3.117840E+06 -2.093339E+06 -3.546716E+06 -1.118383E-10  1.046592E-10
        11  19 -8.543974E+06 -1.104833E+06 -2.507990E+05 -3.486297E+06 -3.345567E+05 -1.155081E+05
        11  20 -8.341803E+06 -6.616609E+05 -5.063147E+05 -3.294787E+06 -7.449448E+05 -2.645168E+05
        11  21 -8.774076E+06 -2.140486E+06 -1.566677E+06 -2.742493E+06 -1.149227E+06 -4.299737E+05
        11  22 -9.394817E+06 -1.342871E+06 -4.693417E+05 -3.629503E+06 -3.316226E+05 -1.144622E+05
        11  23 -9.172401E+06 -1.023883E+06 -7.449646E+05 -3.567627E+06 -7.447328E+05 -2.643661E+05
        11  24 -9.586045E+06 -2.629082E+06 -1.828523E+06 -3.144694E+06 -1.151747E+06 -4.305129E+05
        11  25 -1.024495E+07 -1.580929E+06 -6.879376E+05 -3.772565E+06 -3.286926E+05 -1.134171E+05
        11  26 -1.000232E+07 -1.386000E+06 -9.836822E+05 -3.840110E+06 -7.445205E+05 -2.642153E+05
        11  27 -1.039728E+07 -3.117271E+06 -2.090431E+06 -3.546310E+06 -1.154263E+06 -4.310480E+05
        12   1  1.619242E+05 -7.433503E+05  1.557498E+05 -2.999020E+02  2.323890E+04 -5.956899E+01
        12   2  1.614779E+05 -7.451815E+05  1.554889E+05  7.663208E+01  2.319579E+04 -5.506942E+02
        12   3  1.613224E+05 -7.465094E+05  1.556990E+05 -5.916349E+02  2.304245E+04 -1.041982E+03
        12   4 -6.691194E+01 -1.397526E+06  7.304321E+02 -2.322239E+02  2.324055E+04 -6.639610E+01
        12   5 -1.198659E+02 -1.397772E+06  8.498844E+02  2.902801E+02  2.319741E+04 -4.936726E+02