
 stresses (elem, integ.pnt.,sxx,syy,szz,sxy,sxz,syz) for set ELALL and time  0.1000000E+01

         1   1 -2.785568E+06 -1.988297E+05 -2.467261E+05 -7.552709E+04 -1.686968E+05  2.061072E+01
         1   2 -2.753378E+06  1.879591E+04 -1.094361E+05 -2.338322E+04 -1.100497E+05  4.162607E+00
         1   3 -2.785292E+06  1.091095E+04 -6.682156E+04  2.876449E+04 -5.140245E+04 -2.391857E+00
         1   4 -2.785575E+06 -1.988404E+05 -2.467277E+05  7.327138E-09 -1.686968E+05  2.197127E-11
         1   5 -2.753379E+06  1.879488E+04 -1.094363E+05 -2.767793E-10 -1.100497E+05  3.409812E-10
         1   6 -2.785293E+06  1.090939E+04 -6.682178E+04 -6.298828E-09 -5.140245E+04  6.356202E-10
         1   7 -2.785568E+06 -1.988297E+05 -2.467261E+05  7.552709E+04 -1.686968E+05 -2.061072E+01
         1   8 -2.753378E+06  1.879591E+04 -1.094361E+05  2.338322E+04 -1.100497E+05 -4.162607E+00
         1   9 -2.785292E+06  1.091095E+04 -6.682156E+04 -2.876449E+04 -5.140245E+04  2.391857E+00
         1  10 -2.785599E+06 -1.988374E+05 -2.467799E+05 -7.552709E+04 -6.190505E-10 -2.361350E-10
         1  11 -2.753391E+06  1.879264E+04 -1.094590E+05 -2.338322E+04 -6.795361E-10 -9.311514E-10
         1  12 -2.785295E+06  1.091024E+04 -6.682654E+04  2.876449E+04 -2.689371E-09  5.192111E-10
         1  13 -2.785605E+06 -1.988481E+05 -2.467814E+05  2.025861E-08  1.007377E-10  2.636593E-11
         1  14 -2.753392E+06  1.879161E+04 -1.094591E+05  1.480813E-08 -4.318155E-09  2.127577E-10
         1  15 -2.785296E+06  1.090868E+04 -6.682677E+04  8.262315E-09 -5.116117E-09  5.686696E-10
         1  16 -2.785599E+06 -1.988374E+05 -2.467799E+05  7.552709E+04  1.011979E-09  5.981592E-10
         1  17 -2.753391E+06  1.879264E+04 -1.094590E+05  2.338322E+04  6.930964E-10  1.089032E-09
         1  18 -2.785295E+06  1.091024E+04 -6.682654E+04 -2.876449E+04  1.993364E-09  3.350390E-10
         1  19 -2.785568E+06 -1.988297E+05 -2.467261E+05 -7.552709E+04  1.686968E+05 -2.061072E+01
         1  20 -2.753378E+06  1.879591E+04 -1.094361E+05 -2.338322E+04  1.100497E+05 -4.162607E+00
         1  21 -2.785292E+06  1.091095E+04 -6.682156E+04  2.876449E+04  5.140245E+04  2.391857E+00
         1  22 -2.785575E+06 -1.988404E+05 -2.467277E+05  7.373317E-09  1.686968E+05  2.481850E-11
         1  23 -2.753379E+06  1.879488E+04 -1.094363E+05 -2.274179E-10  1.100497E+05  7.728988E-11
         1  24 -2.785293E+06  1.090939E+04 -6.682178E+04  1.584123E-08  5.140245E+04  4.814187E-10
         1  25 -2.785568E+06 -1.988297E+05 -2.467261E+05  7.552709E+04  1.686968E+05  2.061072E+01
         1  26 -2.753378E+06  1.879591E+04 -1.094361E+05  2.338322E+04  1.100497E+05  4.162607E+00
         1  27 -2.785292E+06  1.091095E+04 -6.682156E+04 -2.876449E+04  5.140245E+04 -2.391857E+00
         2   1 -2.772596E+06 -1.675999E+04 -5.405059E+04 -5.449353E+03 -4.139107E+04  3.648693E-01
         2   2 -2.769221E+06  1.752112E+03 -2.821444E+04 -1.372387E+03 -2.707259E+04  6.010232E-02
         2   3 -2.772556E+06  9.361264E+02 -1.656250E+04  2.704556E+03 -1.275390E+04 -5.579897E-02
         2   4 -2.772596E+06 -1.676005E+04 -5.405059E+04 -1.414196E-08 -4.139107E+04  1.081686E-09
         2   5 -2.769221E+06  1.752109E+03 -2.821444E+04 -7.045404E-09 -2.707259E+04  7.102247E-10
         2   6 -2.772556E+06  9.361126E+02 -1.656250E+04  4.350167E-09 -1.275390E+04 -1.375737E-09
         2   7 -2.772596E+06 -1.675999E+04 -5.405059E+04  5.449353E+03 -4.139107E+04 -3.648693E-01
         2   8 -2.769221E+06  1.752112E+03 -2.821444E+04  1.372387E+03 -2.707259E+04 -6.010232E-02
         2   9 -2.772556E+06  9.361264E+02 -1.656250E+04 -2.704556E+03 -1.275390E+04  5.579897E-02
         2  10 -2.772598E+06 -1.676046E+04 -5.405382E+04 -5.449353E+03 -5.414240E-09  1.424052E-09
         2  11 -2.769222E+06  1.751915E+03 -2.821582E+04 -1.372387E+03 -3.868849E-09  6.594569E-10
         2  12 -2.772556E+06  9.360825E+02 -1.656281E+04  2.704556E+03 -2.645673E-09 -3.066177E-10
         2  13 -2.772598E+06 -1.676051E+04 -5.405383E+04  3.022265E-09 -6.425494E-09  7.203663E-10
         2  14 -2.769222E+06  1.751911E+03 -2.821582E+04  1.514719E-09 -3.071065E-09  5.601563E-10
         2  15 -2.772556E+06  9.360687E+02 -1.656281E+04  6.470227E-09  1.353289E-09 -2.636052E-10
         2  16 -2.772598E+06 -1.676046E+04 -5.405382E+04  5.449353E+03  3.128455E-09  9.460887E-11
         2  17 -2.769222E+06  1.751915E+03 -2.821582E+04  1.372387E+03  4.563394E-11  1.227840E-10
         2  18 -2.772556E+06  9.360825E+02 -1.656281E+04 -2.704556E+03  6.333963E-10 -9.273624E-11
         2  19 -2.772596E+06 -1.675999E+04 -5.405059E+04 -5.449353E+03  4.139107E+04 -3.648693E-01
         2  20 -2.769221E+06  1.752112E+03 -2.821444E+04 -1.372387E+03  2.707259E+04 -6.010232E-02
         2  21 -2.772556E+06  9.361264E+02 -1.656250E+04  2.704556E+03  1.275390E+04  5.579897E-02
         2  22 -2.772596E+06 -1.676005E+04 -5.405059E+04  1.160752E-08  4.139107E+04  4.098577E-10
         2  23 -2.769221E+06  1.752109E+03 -2.821444E+04  1.007063E-08  2.707259E+04  2.304243E-10
         2  24 -2.772556E+06  9.361126E+02 -1.656250E+04  1.714826E-08  1.275390E+04  7.555404E-10
         2  25 -2.772596E+06 -1.675999E+04 -5.405059E+04  5.449353E+03  4.139107E+04  3.648693E-01
         2  26 -2.769221E+06  1.752112E+03 -2.821444E+04  1.372387E+03  2.707259E+04  6.010232E-02
         2  27 -2.772556E+06  9.361264E+02 -1.656250E+04 -2.704556E+03  1.275390E+04 -5.579897E-02
         3   1 -2.771265E+06 -1.362040E+03 -1.286507E+04 -2.131534E+02 -1.016941E+04  3.506503E-03
         3   2 -2.770820E+06  1.858461E+02 -7.217558E+03  3.540460E+01 -6.574408E+03 -3.765338E-04
         3   3 -2.771258E+06  8.122350E+01 -4.331406E+03  2.839582E+02 -2.979445E+03 -1.368600E-03
         3   4 -2.771265E+06 -1.362040E+03 -1.286507E+04  1.016500E-08 -1.016941E+04 -1.895445E-09
         3   5 -2.770820E+06  1.858461E+02 -7.217558E+03  1.574535E-08 -6.574408E+03 -7.514962E-10
         3   6 -2.771258E+06  8.122335E+01 -4.331406E+03  8.944040E-10 -2.979445E+03 -4.027626E-10
         3   7 -2.771265E+06 -1.362040E+03 -1.286507E+04  2.131534E+02 -1.016941E+04 -3.506507E-03
         3   8 -2.770820E+06  1.858461E+02 -7.217558E+03 -3.540460E+01 -6.574408E+03  3.765318E-04
         3   9 -2.771258E+06  8.122350E+01 -4.331406E+03 -2.839582E+02 -2.979445E+03  1.368599E-03
         3  10 -2.771265E+06 -1.362068E+03 -1.286527E+04 -2.131534E+02 -1.368637E-09 -9.671345E-10
         3  11 -2.770820E+06  1.858344E+02 -7.217640E+03  3.540460E+01  1.818852E-09 -9.211273E-10
         3  12 -2.771258E+06  8.122110E+01 -4.331422E+03  2.839582E+02  3.481735E-09 -4.988286E-11
         3  13 -2.771265E+06 -1.362068E+03 -1.286527E+04  2.308058E-08  1.297550E-10 -6.331514E-10
         3  14 -2.770820E+06  1.858344E+02 -7.217640E+03 -1.007533E-08  1.075764E-09 -6.734996E-10
         3  15 -2.771258E+06  8.122095E+01 -4.331422E+03 -2.314025E-09  2.017813E-10 -6.521624E-10
         3  16 -2.771265E+06 -1.362068E+03 -1.286527E+04  2.131534E+02 -1.533932E-10 -9.842477E-11
         3  17 -2.770820E+06  1.858344E+02 -7.217640E+03 -3.540460E+01  2.544339E-10 -4.860095E-10
         3  18 -2.771258E+06  8.122110E+01 -4.331422E+03 -2.839582E+02 -1.401911E-09 -1.377666E-09
         3  19 -2.771265E+06 -1.362040E+03 -1.286507E+04 -2.131534E+02  1.016941E+04 -3.506505E-03
         3  20 -2.770820E+06  1.858461E+02 -7.217558E+03  3.540460E+01  6.574408E+03  3.765322E-04
         3  21 -2.771258E+06  8.122350E+01 -4.331406E+03  2.839582E+02  2.979445E+03  1.368600E-03
         3  22 -2.771265E+06 -1.362040E+03 -1.286507E+04  1.445130E-08  1.016941E+04  6.400041E-10
         3  23 -2.770820E+06  1.858461E+02 -7.217558E+03 -1.652788E-08  6.574408E+03 -7.127081E-10
         3  24 -2.771258E+06  8.122335E+01 -4.331406E+03 -1.630956E-08  2.979445E+03 -8.580211E-10
         3  25 -2.771265E+06 -1.362040E+03 -1.286507E+04  2.131534E+02  1.016941E+04  3.506506E-03
         3  26 -2.770820E+06  1.858461E+02 -7.217558E+03 -3.540460E+01  6.574408E+03 -3.765331E-04
         3  27 -2.771258E+06  8.122350E+01 -4.331406E+03 -2.839582E+02  2.979445E+03 -1.368602E-03
         4   1 -2.771103E+06 -9.718772E+01 -3.440918E+03  3.645810E+01 -2.282600E+03 -1.346178E-04
         4   2 -2.771008E+06  2.978060E+01 -2.326073E+03  2.536672E+01 -1.131795E+03 -4.644067E-05
         4   3 -2.771102E+06  2.080154E+00 -2.001638E+03  1.427518E+01  1.902741E+01  4.380035E-07
         4   4 -2.771103E+06 -9.718772E+01 -3.440918E+03  2.382741E-08 -2.282600E+03  7.514517E-10
         4   5 -2.771008E+06  2.978059E+01 -2.326073E+03 -4.992055E-09 -1.131795E+03  1.925857E-09
         4   6 -2.771102E+06  2.080153E+00 -2.001638E+03  1.119591E-09  1.902741E+01 -2.352194E-09
         4   7 -2.771103E+06 -9.718772E+01 -3.440918E+03 -3.645810E+01 -2.282600E+03  1.346198E-04
         4   8 -2.771008E+06  2.978060E+01 -2.326073E+03 -2.536672E+01 -1.131795E+03  4.644375E-05
         4   9 -2.771102E+06  2.080154E+00 -2.001638E+03 -1.427518E+01  1.902741E+01 -4.417453E-07
         4  10 -2.771103E+06 -9.718912E+01 -3.440927E+03  3.645810E+01  6.321680E-10  1.213467E-09
         4  11 -2.771008E+06  2.978025E+01 -2.326075E+03  2.536672E+01  2.353843E-09  1.318368E-09
         4  12 -2.771102E+06  2.080154E+00 -2.001638E+03  1.427518E+01  3.654554E-09 -1.243596E-09
         4  13 -2.771103E+06 -9.718913E+01 -3.440927E+03 -5.985690E-09 -2.209615E-09  2.427996E-10
         4  14 -2.771008E+06  2.978025E+01 -2.326075E+03 -2.895078E-09 -4.177833E-09  1.165578E-09
         4  15 -2.771102E+06  2.080153E+00 -2.001638E+03  8.784914E-09 -8.339806E-10 -1.022964E-09
         4  16 -2.771103E+06 -9.718912E+01 -3.440927E+03 -3.645810E+01 -7.406179E-10 -6.971021E-10
         4  17 -2.771008E+06  2.978025E+01 -2.326075E+03 -2.536672E+01 -2.414794E-09  1.083046E-09
         4  18 -2.771102E+06  2.080154E+00 -2.001638E+03 -1.427518E+01 -2.084762E-09 -8.701463E-10
         4  19 -2.771103E+06 -9.718772E+01 -3.440918E+03  3.645810E+01  2.282600E+03  1.346207E-04
         4  20 -2.771008E+06  2.978060E+01 -2.326073E+03  2.536672E+01  1.131795E+03  4.644374E-05
         4  21 -2.771102E+06  2.080154E+00 -2.001638E+03  1.427518E+01 -1.902741E+01 -4.394571E-07
         4  22 -2.771103E+06 -9.718772E+01 -3.440918E+03 -1.407664E-09  2.282600E+03 -3.549419E-10
         4  23 -2.771008E+06  2.978059E+01 -2.326073E+03 -1.372205E-08  1.131795E+03  2.244751E-10
         4  24 -2.771102E+06  2.080153E+00 -2.001638E+03 -4.523110E-09 -1.902741E+01  3.475363E-10
         4  25 -2.771103E+06 -9.718772E+01 -3.440918E+03 -3.645810E+01  2.282600E+03 -1.346216E-04
         4  26 -2.771008E+06  2.978060E+01 -2.326073E+03 -2.536672E+01  1.131795E+03 -4.644209E-05
         4  27 -2.771102E+06  2.080154E+00 -2.001638E+03 -1.427518E+01 -1.902741E+01  4.397447E-07
         5   1 -2.771110E+06  5.092458E+00 -2.071544E+03 -3.123330E+01  3.864763E+02 -1.952912E-05
         5   2 -2.770999E+06  3.555083E+01 -2.705221E+03 -4.135688E+01  1.725116E+03 -1.154113E-04
         5   3 -2.771111E+06 -1.253734E+02 -4.261175E+03 -5.148048E+01  3.063753E+03 -2.551414E-04
         5   4 -2.771110E+06  5.092456E+00 -2.071544E+03  1.177505E-08  3.864763E+02 -2.386775E-09
         5   5 -2.770999E+06  3.555083E+01 -2.705221E+03  1.774456E-08  1.725116E+03  1.635471E-09
         5   6 -2.771111E+06 -1.253734E+02 -4.261175E+03  1.026273E-08  3.063753E+03  2.137137E-10
         5   7 -2.771110E+06  5.092458E+00 -2.071544E+03  3.123330E+01  3.864763E+02  1.952376E-05
         5   8 -2.770999E+06  3.555083E+01 -2.705221E+03  4.135688E+01  1.725116E+03  1.154134E-04
         5   9 -2.771111E+06 -1.253734E+02 -4.261175E+03  5.148048E+01  3.063753E+03  2.551429E-04
         5  10 -2.771110E+06  5.092418E+00 -2.071544E+03 -3.123330E+01 -2.854518E-09 -7.729711E-10
         5  11 -2.770999E+06  3.555003E+01 -2.705227E+03 -4.135688E+01 -2.682390E-10  1.084375E-09
         5  12 -2.771112E+06 -1.253760E+02 -4.261193E+03 -5.148048E+01 -3.674552E-10 -1.707758E-10
         5  13 -2.771110E+06  5.092416E+00 -2.071544E+03  7.881221E-09  1.527725E-09 -9.503666E-10
         5  14 -2.770999E+06  3.555003E+01 -2.705227E+03  4.879372E-09 -4.177836E-09  1.124534E-09
         5  15 -2.771112E+06 -1.253760E+02 -4.261193E+03 -1.318329E-08  8.062833E-10 -7.704685E-11
         5  16 -2.771110E+06  5.092418E+00 -2.071544E+03  3.123330E+01  1.396517E-09 -1.029946E-09
         5  17 -2.770999E+06  3.555003E+01 -2.705227E+03  4.135688E+01  8.542226E-10  1.232053E-09
         5  18 -2.771112E+06 -1.253760E+02 -4.261193E+03  5.148048E+01 -1.448052E-09  2.798008E-10
         5  19 -2.771110E+06  5.092458E+00 -2.071544E+03 -3.123330E+01 -3.864763E+02  1.952680E-05
         5  20 -2.770999E+06  3.555083E+01 -2.705221E+03 -4.135688E+01 -1.725116E+03  1.154132E-04
         5  21 -2.771111E+06 -1.253734E+02 -4.261175E+03 -5.148048E+01 -3.063753E+03  2.551418E-04
         5  22 -2.771110E+06  5.092456E+00 -2.071544E+03  1.261455E-08 -3.864763E+02  5.761805E-10
         5  23 -2.770999E+06  3.555083E+01 -2.705221E+03  4.927643E-09 -1.725116E+03  8.138547E-10
         5  24 -2.771111E+06 -1.253734E+02 -4.261175E+03  1.014160E-08 -3.063753E+03 -4.194210E-10
         5  25 -2.771110E+06  5.092458E+00 -2.071544E+03  3.123330E+01 -3.864763E+02 -1.952659E-05
         5  26 -2.770999E+06  3.555083E+01 -2.705221E+03  4.135688E+01 -1.725116E+03 -1.154120E-04
         5  27 -2.771111E+06 -1.253734E+02 -4.261175E+03  5.148048E+01 -3.063753E+03 -2.551426E-04
         6   1 -2.771313E+06  1.039058E+02 -5.446299E+03 -3.688761E+02  3.933809E+03 -2.347366E-03
         6   2 -2.770752E+06  2.384540E+02 -9.211588E+03 -4.785807E+01  8.522405E+03 -6.597863E-04
         6   3 -2.771323E+06 -1.751797E+03 -1.650537E+04  2.731564E+02  1.311090E+04  5.793360E-03
         6   4 -2.771313E+06  1.039056E+02 -5.446299E+03  3.026130E-08  3.933809E+03 -7.264647E-10
         6   5 -2.770752E+06  2.384540E+02 -9.211588E+03  8.913804E-09  8.522405E+03  1.785953E-10
         6   6 -2.771323E+06 -1.751797E+03 -1.650537E+04 -7.046492E-09  1.311090E+04  4.278623E-10
         6   7 -2.771313E+06  1.039058E+02 -5.446299E+03  3.688761E+02  3.933809E+03  2.347365E-03
         6   8 -2.770752E+06  2.384540E+02 -9.211588E+03  4.785807E+01  8.522405E+03  6.597859E-04
         6   9 -2.771323E+06 -1.751797E+03 -1.650537E+04 -2.731564E+02  1.311090E+04 -5.793359E-03
         6  10 -2.771313E+06  1.039016E+02 -5.446328E+03 -3.688761E+02 -2.262879E-10 -7.975356E-10
         6  11 -2.770752E+06  2.384344E+02 -9.211725E+03 -4.785807E+01  1.992101E-09  7.663919E-10
         6  12 -2.771323E+06 -1.751843E+03 -1.650569E+04  2.731564E+02 -1.053703E-10  7.996854E-10
         6  13 -2.771313E+06  1.039014E+02 -5.446328E+03  1.319585E-08 -2.167590E-10 -7.037469E-10
         6  14 -2.770752E+06  2.384344E+02 -9.211725E+03 -6.088281E-09 -2.503366E-10  3.458507E-10
         6  15 -2.771323E+06 -1.751843E+03 -1.650569E+04 -1.566530E-08  8.881563E-10  4.625711E-10
         6  16 -2.771313E+06  1.039016E+02 -5.446328E+03  3.688761E+02 -9.578573E-10 -5.118650E-10
         6  17 -2.770752E+06  2.384344E+02 -9.211725E+03  4.785807E+01 -2.242437E-09 -3.515088E-10
         6  18 -2.771323E+06 -1.751843E+03 -1.650569E+04 -2.731564E+02 -1.796621E-10  3.007992E-10
         6  19 -2.771313E+06  1.039058E+02 -5.446299E+03 -3.688761E+02 -3.933809E+03  2.347364E-03
         6  20 -2.770752E+06  2.384540E+02 -9.211588E+03 -4.785807E+01 -8.522405E+03  6.597882E-04
         6  21 -2.771323E+06 -1.751797E+03 -1.650537E+04  2.731564E+02 -1.311090E+04 -5.793359E-03
         6  22 -2.771313E+06  1.039056E+02 -5.446299E+03  1.764166E-08 -3.933809E+03 -7.172188E-10
         6  23 -2.770752E+06  2.384540E+02 -9.211588E+03 -8.170572E-09 -8.522405E+03  1.280777E-10
         6  24 -2.771323E+06 -1.751797E+03 -1.650537E+04 -2.783274E-09 -1.311090E+04  4.894763E-10
         6  25 -2.771313E+06  1.039058E+02 -5.446299E+03  3.688761E+02 -3.933809E+03 -2.347366E-03
         6  26 -2.770752E+06  2.384540E+02 -9.211588E+03  4.785807E+01 -8.522405E+03 -6.597873E-04
         6  27 -2.771323E+06 -1.751797E+03 -1.650537E+04 -2.731564E+02 -1.311090E+04  5.793359E-03
         7   1 -2.772984E+06  1.203788E+03 -2.127066E+04 -3.479381E+03  1.642861E+04 -9.246777E-02
         7   2 -2.768696E+06  2.253299E+03 -3.626938E+04  1.764544E+03  3.483548E+04  9.943483E-02
         7   3 -2.773036E+06 -2.155583E+04 -6.950452E+04  7.008584E+03  5.324228E+04  6.036322E-01
         7   4 -2.772984E+06  1.203765E+03 -2.127066E+04  4.925843E-09  1.642861E+04  7.021386E-11
         7   5 -2.768696E+06  2.253294E+03 -3.626938E+04  5.343543E-09  3.483548E+04 -3.380587E-10
         7   6 -2.773036E+06 -2.155592E+04 -6.950454E+04  1.545583E-08  5.324228E+04 -1.359507E-10
         7   7 -2.772984E+06  1.203788E+03 -2.127066E+04  3.479381E+03  1.642861E+04  9.246777E-02
         7   8 -2.768696E+06  2.253299E+03 -3.626938E+04 -1.764544E+03  3.483548E+04 -9.943484E-02
         7   9 -2.773036E+06 -2.155583E+04 -6.950452E+04 -7.008584E+03  5.324228E+04 -6.036322E-01
         7  10 -2.772984E+06  1.203715E+03 -2.127117E+04 -3.479381E+03 -8.259047E-10 -5.724840E-11
         7  11 -2.768697E+06  2.252972E+03 -3.627167E+04  1.764544E+03 -3.347171E-09 -8.869883E-10
         7  12 -2.773039E+06 -2.155659E+04 -6.950987E+04  7.008584E+03 -2.289676E-09 -7.722363E-10
         7  13 -2.772984E+06  1.203693E+03 -2.127117E+04  4.873372E-09  1.459762E-09  3.099666E-10
         7  14 -2.768697E+06  2.252966E+03 -3.627167E+04  9.858264E-10 -1.200585E-09 -4.471514E-11
         7  15 -2.773039E+06 -2.155668E+04 -6.950989E+04  1.409819E-09 -3.138554E-09 -7.019213E-10
         7  16 -2.772984E+06  1.203715E+03 -2.127117E+04  3.479381E+03  4.223510E-10  7.045816E-10
         7  17 -2.768697E+06  2.252972E+03 -3.627167E+04 -1.764544E+03  1.238869E-09  5.925558E-10
         7  18 -2.773039E+06 -2.155659E+04 -6.950987E+04 -7.008584E+03 -3.198240E-09 -7.878980E-10
         7  19 -2.772984E+06  1.203788E+03 -2.127066E+04 -3.479381E+03 -1.642861E+04  9.246777E-02
         7  20 -2.768696E+06  2.253299E+03 -3.626938E+04  1.764544E+03 -3.483548E+04 -9.943484E-02
         7  21 -2.773036E+06 -2.155583E+04 -6.950452E+04  7.008584E+03 -5.324228E+04 -6.036322E-01
         7  22 -2.772984E+06  1.203765E+03 -2.127066E+04  2.202288E-08 -1.642861E+04  5.295616E-10
         7  23 -2.768696E+06  2.253294E+03 -3.626938E+04  5.228112E-09 -3.483548E+04  2.409578E-10
         7  24 -2.773036E+06 -2.155592E+04 -6.950454E+04  1.102894E-08 -5.324228E+04 -1.251074E-09
         7  25 -2.772984E+06  1.203788E+03 -2.127066E+04  3.479381E+03 -1.642861E+04 -9.246777E-02
         7  26 -2.768696E+06  2.253299E+03 -3.626938E+04 -1.764544E+03 -3.483548E+04  9.943484E-02
         7  27 -2.773036E+06 -2.155583E+04 -6.950452E+04 -7.008584E+03 -5.324228E+04  6.036322E-01
         8   1 -2.789363E+06  1.403351E+04 -8.593088E+04 -3.699495E+04  6.611585E+04 -3.956809E+00
         8   2 -2.748318E+06  2.417427E+04 -1.407353E+05  3.007432E+04  1.415430E+05  6.885768E+00
         8   3 -2.789714E+06 -2.557158E+05 -3.172981E+05  9.713850E+04  2.169715E+05  3.409390E+01
         8   4 -2.789365E+06  1.403093E+04 -8.593125E+04  2.100281E-08  6.611585E+04  2.123630E-10
         8   5 -2.748319E+06  2.417257E+04 -1.407356E+05  9.750229E-09  1.415430E+05  1.555781E-10
         8   6 -2.789724E+06 -2.557336E+05 -3.173006E+05  3.306138E-09  2.169715E+05 -9.069516E-12
         8   7 -2.789363E+06  1.403351E+04 -8.593088E+04  3.699495E+04  6.611585E+04  3.956809E+00
         8   8 -2.748318E+06  2.417427E+04 -1.407353E+05 -3.007432E+04  1.415430E+05 -6.885768E+00
         8   9 -2.789714E+06 -2.557158E+05 -3.172981E+05 -9.713850E+04  2.169715E+05 -3.409390E+01
         8  10 -2.789368E+06  1.403233E+04 -8.593913E+04 -3.699495E+04 -2.005933E-09  1.278787E-10
         8  11 -2.748340E+06  2.416886E+04 -1.407732E+05  3.007432E+04  1.578778E-09  7.017625E-10
         8  12 -2.789765E+06 -2.557285E+05 -3.173869E+05  9.713849E+04  5.346854E-10  3.464958E-10
         8  13 -2.789369E+06  1.402975E+04 -8.593950E+04  8.239967E-09 -4.235572E-09 -4.791038E-10
         8  14 -2.748341E+06  2.416716E+04 -1.407734E+05  1.170598E-09 -1.490308E-09  4.033104E-10
         8  15 -2.789775E+06 -2.557464E+05 -3.173895E+05 -5.195998E-10 -2.316436E-09  2.475130E-10
         8  16 -2.789368E+06  1.403233E+04 -8.593913E+04  3.699495E+04 -8.792679E-10 -7.624316E-10
         8  17 -2.748340E+06  2.416886E+04 -1.407732E+05 -3.007432E+04  7.408603E-10  2.496618E-10
         8  18 -2.789765E+06 -2.557285E+05 -3.173869E+05 -9.713849E+04 -1.740622E-09  2.426154E-10
         8  19 -2.789363E+06  1.403351E+04 -8.593088E+04 -3.699495E+04 -6.611585E+04  3.956809E+00
         8  20 -2.748318E+06  2.417427E+04 -1.407353E+05  3.007432E+04 -1.415430E+05 -6.885768E+00
         8  21 -2.789714E+06 -2.557158E+05 -3.172981E+05  9.713850E+04 -2.169715E+05 -3.409390E+01
         8  22 -2.789365E+06  1.403093E+04 -8.593125E+04  4.083695E-09 -6.611585E+04 -1.101148E-09
         8  23 -2.748319E+06  2.417257E+04 -1.407356E+05 -7.396490E-09 -1.415430E+05  6.016857E-10
         8  24 -2.789724E+06 -2.557336E+05 -3.173006E+05 -9.188074E-09 -2.169715E+05  4.792959E-10
         8  25 -2.789363E+06  1.403351E+04 -8.593088E+04  3.699495E+04 -6.611585E+04 -3.956809E+00
         8  26 -2.748318E+06  2.417427E+04 -1.407353E+05 -3.007432E+04 -1.415430E+05  6.885768E+00
         8  27 -2.789714E+06 -2.557158E+05 -3.172981E+05 -9.713850E+04 -2.169715E+05  3.409390E+01
         9   1  2.017695E+06  6.841491E+06  1.952250E+06 -1.220547E+06  9.254743E+04  6.805706E+05
         9   2  1.548136E+06  5.754738E+06  1.333061E+06 -1.045100E+06  3.031736E+05  3.149576E+05
         9   3  1.251881E+06  4.762494E+06  9.943223E+05 -1.083733E+06  3.389297E+05 -4.990852E+04
         9   4  2.032906E+05 -5.283816E+05  2.236521E+05 -1.078403E+06  9.387450E+04  1.546891E+05
         9   5  4.674906E+04 -5.466480E+05  1.095653E+05 -9.716897E+05  3.041295E+05  9.912735E+04
         9   6  1.094875E+04 -5.242365E+05  6.245963E+04 -1.079011E+06  3.387803E+05  4.362238E+04
         9   7 -1.614755E+06 -7.847940E+06 -1.507626E+06 -9.378778E+05  9.497500E+04 -3.650472E+05
         9   8 -1.456967E+06 -6.810010E+06 -1.115633E+06 -8.989807E+05  3.050415E+05 -1.145796E+05
         9   9 -1.231506E+06 -5.783744E+06 -8.703959E+05 -1.074280E+06  3.386315E+05  1.363836E+05
         9  10  2.017563E+06  6.840995E+06  1.951372E+06 -1.220597E+06 -2.209452E-10 -1.346339E-09
         9  11  1.548011E+06  5.754607E+06  1.332703E+06 -1.045177E+06  3.099335E-09 -1.318692E-09
         9  12  1.251757E+06  4.762460E+06  9.941020E+05 -1.083719E+06  2.107550E-10 -1.639678E-09
         9  13  2.032747E+05 -5.284098E+05  2.235904E+05 -1.078415E+06 -2.242405E-10 -5.035702E-11
         9  14  4.664707E+04 -5.466834E+05  1.093729E+05 -9.717140E+05 -7.700012E-10 -8.794825E-11
         9  15  1.082499E+04 -5.242694E+05  6.224030E+04 -1.079023E+06 -2.059816E-09 -4.494562E-11
         9  16 -1.614801E+06 -7.848087E+06 -1.507896E+06 -9.378498E+05 -2.377118E-10  1.212241E-09
         9  17 -1.457070E+06 -6.810049E+06 -1.115833E+06 -8.989525E+05 -2.406185E-09  1.122215E-09
         9  18 -1.231635E+06 -5.783795E+06 -8.706469E+05 -1.074318E+06 -4.256097E-09  1.514481E-09
         9  19  2.017695E+06  6.841491E+06  1.952250E+06 -1.220547E+06 -9.254743E+04 -6.805706E+05
         9  20  1.548136E+06  5.754738E+06  1.333061E+06 -1.045100E+06 -3.031736E+05 -3.149576E+05
         9  21  1.251881E+06  4.762494E+06  9.943223E+05 -1.083733E+06 -3.389297E+05  4.990852E+04
         9  22  2.032906E+05 -5.283816E+05  2.236521E+05 -1.078403E+06 -9.387450E+04 -1.546891E+05
         9  23  4.674906E+04 -5.466480E+05  1.095653E+05 -9.716897E+05 -3.041295E+05 -9.912735E+04
         9  24  1.094875E+04 -5.242365E+05  6.245963E+04 -1.079011E+06 -3.387803E+05 -4.362238E+04
         9  25 -1.614755E+06 -7.847940E+06 -1.507626E+06 -9.378778E+05 -9.497500E+04  3.650472E+05
         9  26 -1.456967E+06 -6.810010E+06 -1.115633E+06 -8.989807E+05 -3.050415E+05  1.145796E+05
         9  27 -1.231506E+06 -5.783744E+06 -8.703959E+05 -1.074280E+06 -3.386315E+05 -1.363836E+05
        10   1  1.094006E+06  4.073472E+06  8.509681E+05 -1.100606E+06  3.038946E+05 -4.195117E+04
        10   2  8.400860E+05  3.030135E+06  6.322211E+05 -9.822212E+05  2.526105E+05 -8.435129E+04
        10   3  6.009913E+05  1.996441E+06  4.444754E+05 -1.089480E+06  1.860216E+05 -1.268931E+05
        10   4  1.453689E+04 -5.311257E+05  4.873020E+04 -1.081560E+06  3.037222E+05  3.509035E+04
        10   5  8.412023E+03 -5.318866E+05  3.070070E+04 -9.687157E+05  2.521839E+05  1.968253E+04
        10   6  1.253101E+04 -5.286862E+05  2.505515E+04 -1.081590E+06  1.852951E+05  4.065416E+03
        10   7 -1.066076E+06 -5.115016E+06 -7.542365E+05 -1.062619E+06  3.035537E+05  1.115798E+05
        10   8 -8.239237E+05 -4.081420E+06 -5.711858E+05 -9.552653E+05  2.517601E+05  1.231407E+05
        10   9 -5.762509E+05 -3.047489E+06 -3.944938E+05 -1.073719E+06  1.845700E+05  1.345104E+05
        10  10  1.093907E+06  4.073445E+06  8.507914E+05 -1.100596E+06 -9.111972E-10 -2.878200E-08
        10  11  8.400156E+05  3.030110E+06  6.320880E+05 -9.822041E+05 -1.811218E-09 -1.144606E-10
        10  12  6.009500E+05  1.996415E+06  4.443805E+05 -1.089461E+06 -3.157701E-10  2.915651E-08
        10  13  1.443750E+04 -5.311518E+05  4.855449E+04 -1.081569E+06 -1.260340E-09 -6.320821E-11
        10  14  8.343635E+03 -5.319041E+05  3.058046E+04 -9.687198E+05 -1.823775E-09  7.071769E-11
        10  15  1.249414E+04 -5.286954E+05  2.499061E+04 -1.081590E+06  8.369390E-11  2.459026E-10
        10  16 -1.066179E+06 -5.115054E+06 -7.544334E+05 -1.062646E+06 -2.724046E-09  2.858827E-08
        10  17 -8.239960E+05 -4.081454E+06 -5.713338E+05 -9.552904E+05 -1.325721E-09 -1.678963E-10
        10  18 -5.762924E+05 -3.047517E+06 -3.945922E+05 -1.073739E+06 -6.266750E-10 -2.885559E-08
        10  19  1.094006E+06  4.073472E+06  8.509681E+05 -1.100606E+06 -3.038946E+05  4.195117E+04
        10  20  8.400860E+05  3.030135E+06  6.322211E+05 -9.822212E+05 -2.526105E+05  8.435129E+04
        10  21  6.009913E+05  1.996441E+06  4.444754E+05 -1.089480E+06 -1.860216E+05  1.268931E+05
        10  22  1.453689E+04 -5.311257E+05  4.873020E+04 -1.081560E+06 -3.037222E+05 -3.509035E+04
        10  23  8.412023E+03 -5.318866E+05  3.070070E+04 -9.687157E+05 -2.521839E+05 -1.968253E+04
        10  24  1.253101E+04 -5.286862E+05  2.505515E+04 -1.081590E+06 -1.852951E+05 -4.065416E+03
        10  25 -1.066076E+06 -5.115016E+06 -7.542365E+05 -1.062619E+06 -3.035537E+05 -1.115798E+05
        10  26 -8.239237E+05 -4.081420E+06 -5.711858E+05 -9.552653E+05 -2.517601E+05 -1.231407E+05
        10  27 -5.762509E+05 -3.047489E+06 -3.944938E+05 -1.073719E+06 -1.845700E+05 -1.345104E+05
        11   1  4.437711E+05  1.324621E+06  3.271299E+05 -1.091260E+06  1.415790E+05 -1.307870E+05
        11   2  2.096629E+05  2.850123E+05  1.535194E+05 -9.567441E+05  7.280141E+04 -1.273589E+05
        11   3  3.001647E+03 -7.494338E+05 -1.615638E+04 -1.048227E+06  1.538843E+04 -1.239387E+05
        11   4  1.306208E+04 -5.273268E+05  2.489668E+04 -1.081673E+06  1.407943E+05 -2.084180E+02
        11   5  2.231888E+04 -5.308059E+05  3.167014E+04 -9.685527E+05  7.211064E+04 -1.678717E+04
        11   6  6.254378E+04 -5.267488E+05  5.623533E+04 -1.081409E+06  1.479721E+04 -3.336650E+04
        11   7 -4.178128E+05 -2.375843E+06 -2.773699E+05 -1.072107E+06  1.400122E+05  1.299947E+05
        11   8 -1.650492E+05 -1.345929E+06 -9.014583E+04 -9.803437E+05  7.141507E+04  9.364516E+04
        11   9  1.220895E+05 -3.040026E+05  1.286534E+05 -1.114604E+06  1.419640E+04  5.723924E+04
        11  10  4.437451E+05  1.324597E+06  3.270603E+05 -1.091245E+06 -5.484814E-10  9.382190E-10
        11  11  2.096528E+05  2.849935E+05  1.534790E+05 -9.567367E+05 -1.492713E-09  7.632899E-10
        11  12  2.997269E+03 -7.494503E+05 -1.618571E+04 -1.048225E+06 -2.310077E-10  1.199725E-10
        11  13  1.304080E+04 -5.273321E+05  2.485943E+04 -1.081672E+06 -1.819019E-09  3.425041E-10
        11  14  2.231323E+04 -5.308076E+05  3.165985E+04 -9.685517E+05 -6.589103E-10  2.018310E-10
        11  15  6.254325E+04 -5.267501E+05  5.623283E+04 -1.081409E+06  6.279703E-10  3.432122E-12
        11  16 -4.178385E+05 -2.375867E+06 -2.774388E+05 -1.072122E+06  1.705895E-10 -6.956723E-10
        11  17 -1.650571E+05 -1.345940E+06 -9.017197E+04 -9.803491E+05  2.404809E-09 -5.135488E-10
        11  18  1.220884E+05 -3.040061E+05  1.286468E+05 -1.114604E+06 -7.755937E-10 -3.425888E-10
        11  19  4.437711E+05  1.324621E+06  3.271299E+05 -1.091260E+06 -1.415790E+05  1.307870E+05
        11  20  2.096629E+05  2.850123E+05  1.535194E+05 -9.567441E+05 -7.280141E+04  1.273589E+05
        11  21  3.001647E+03 -7.494338E+05 -1.615638E+04 -1.048227E+06 -1.538843E+04  1.239387E+05
        11  22  1.306208E+04 -5.273268E+05  2.489668E+04 -1.081673E+06 -1.407943E+05  2.084180E+02
        11  23  2.231888E+04 -5.308059E+05  3.167014E+04 -9.685527E+05 -7.211064E+04  1.678717E+04
        11  24  6.254378E+04 -5.267488E+05  5.623533E+04 -1.081409E+06 -1.479721E+04  3.336650E+04
        11  25 -4.178128E+05 -2.375843E+06 -2.773699E+05 -1.072107E+06 -1.400122E+05 -1.299947E+05
        11  26 -1.650492E+05 -1.345929E+06 -9.014583E+04 -9.803437E+05 -7.141507E+04 -9.364516E+04
        11  27  1.220895E+05 -3.040026E+05  1.286534E+05 -1.114604E+06 -1.419640E+04 -5.723924E+04
        12   1 -3.647617E+06 -1.029947E+06 -5.494106E+05 -1.363961E+06 -3.168707E+05 -1.159319E+05
        12   2 -3.567811E+06 -5.452352E+05 -2.519796E+05 -1.389864E+06 -2.023928E+05 -6.791924E+04
        12   3 -3.643201E+06 -5.009366E+05 -1.568055E+05 -1.328742E+06 -8.565270E+04 -2.591375E+04
        12   4 -3.526156E+06 -8.548051E+05 -4.909151E+05 -1.197888E+06 -3.123622E+05 -1.143251E+05
        12   5 -3.422830E+06 -4.516687E+05 -2.070982E+05 -1.309958E+06 -2.015172E+05 -6.760723E+04