
 stresses (elem, integ.pnt.,sxx,syy,szz,sxy,sxz,syz) for set ELALL and time  0.1000000E+01

         1   1  7.050250E+06  3.529162E+05  4.483296E+05  1.078524E+05  3.028984E+05  5.205650E+01
         1   2  6.988762E+06 -5.326718E+04  2.003175E+05  3.093949E+04  1.946527E+05  9.597185E+00
         1   3  7.051507E+06 -1.708586E+04  1.328231E+05 -4.596664E+04  8.640185E+04 -6.328394E+00
         1   4  7.050238E+06  3.528946E+05  4.483266E+05 -2.858870E-09  3.028984E+05  1.636464E-10
         1   5  6.988761E+06 -5.326896E+04  2.003172E+05  1.764044E-09  1.946527E+05  5.270610E-10
         1   6  7.051505E+06 -1.708979E+04  1.328225E+05 -1.466534E-08  8.640185E+04  3.163479E-10
         1   7  7.050250E+06  3.529162E+05  4.483296E+05 -1.078524E+05  3.028984E+05 -5.205650E+01
         1   8  6.988762E+06 -5.326718E+04  2.003175E+05 -3.093949E+04  1.946527E+05 -9.597185E+00
         1   9  7.051507E+06 -1.708586E+04  1.328231E+05  4.596664E+04  8.640185E+04  6.328394E+00
         1  10  7.050153E+06  3.528919E+05  4.481592E+05  1.078524E+05  2.321831E-09  4.010320E-10
         1  11  6.988721E+06 -5.327721E+04  2.002471E+05  3.093949E+04 -1.202927E-09  1.691039E-10
         1  12  7.051499E+06 -1.708784E+04  1.328092E+05 -4.596664E+04 -1.092687E-09 -4.353074E-10
         1  13  7.050140E+06  3.528703E+05  4.481561E+05  1.012806E-08  1.353896E-10  2.851388E-11
         1  14  6.988720E+06 -5.327899E+04  2.002468E+05  1.776652E-09  2.131929E-09 -3.146494E-12
         1  15  7.051497E+06 -1.709176E+04  1.328086E+05 -4.397396E-09  1.213811E-09  2.337001E-10
         1  16  7.050153E+06  3.528919E+05  4.481592E+05 -1.078524E+05 -1.957765E-09 -7.537504E-11
         1  17  6.988721E+06 -5.327721E+04  2.002471E+05 -3.093949E+04 -4.517087E-10  6.299379E-10
         1  18  7.051499E+06 -1.708784E+04  1.328092E+05  4.596664E+04  9.669592E-11  5.915917E-10
         1  19  7.050250E+06  3.529162E+05  4.483296E+05  1.078524E+05 -3.028984E+05 -5.205650E+01
         1  20  6.988762E+06 -5.326718E+04  2.003175E+05  3.093949E+04 -1.946527E+05 -9.597185E+00
         1  21  7.051507E+06 -1.708586E+04  1.328231E+05 -4.596664E+04 -8.640185E+04  6.328394E+00
         1  22  7.050238E+06  3.528946E+05  4.483266E+05  1.474364E-09 -3.028984E+05 -2.249876E-10
         1  23  6.988761E+06 -5.326896E+04  2.003172E+05 -1.550950E-08 -1.946527E+05 -4.908131E-10
         1  24  7.051505E+06 -1.708979E+04  1.328225E+05 -1.412962E-08 -8.640185E+04  1.029054E-11
         1  25  7.050250E+06  3.529162E+05  4.483296E+05 -1.078524E+05 -3.028984E+05  5.205650E+01
         1  26  6.988762E+06 -5.326718E+04  2.003175E+05 -3.093949E+04 -1.946527E+05  9.597185E+00
         1  27  7.051507E+06 -1.708586E+04  1.328231E+05  4.596664E+04 -8.640185E+04 -6.328394E+00
         2   1  7.027898E+06  3.795257E+04  1.137009E+05  1.176944E+04  6.500433E+04  1.219109E+00
         2   2  7.018317E+06 -7.160078E+03  7.419857E+04  2.459906E+03  2.707687E+04  1.061366E-01
         2   3  7.028033E+06  5.542475E+03  7.364119E+04 -6.849600E+03 -1.085027E+04  1.184262E-01
         2   4  7.027898E+06  3.795231E+04  1.137009E+05 -1.537193E-08  6.500433E+04 -8.971345E-11
         2   5  7.018317E+06 -7.160089E+03  7.419857E+04 -3.608642E-09  2.707687E+04 -5.832907E-10
         2   6  7.028033E+06  5.542388E+03  7.364118E+04 -2.917273E-08 -1.085027E+04  7.334290E-10
         2   7  7.027898E+06  3.795257E+04  1.137009E+05 -1.176944E+04  6.500433E+04 -1.219109E+00
         2   8  7.018317E+06 -7.160078E+03  7.419857E+04 -2.459906E+03  2.707687E+04 -1.061366E-01
         2   9  7.028033E+06  5.542475E+03  7.364119E+04  6.849600E+03 -1.085027E+04 -1.184262E-01
         2  10  7.027894E+06  3.795145E+04  1.136931E+05  1.176944E+04 -2.692771E-10 -2.911889E-10
         2  11  7.018316E+06 -7.160272E+03  7.419721E+04  2.459906E+03 -1.106260E-09  6.009557E-10
         2  12  7.028033E+06  5.542444E+03  7.364097E+04 -6.849600E+03 -2.397522E-11  4.190639E-10
         2  13  7.027894E+06  3.795119E+04  1.136930E+05  1.920058E-08 -9.028602E-11  2.915642E-10
         2  14  7.018316E+06 -7.160283E+03  7.419721E+04  1.365817E-08  2.845281E-09 -1.567532E-10
         2  15  7.028033E+06  5.542357E+03  7.364096E+04 -1.024340E-08 -1.540075E-09  2.555418E-10
         2  16  7.027894E+06  3.795145E+04  1.136931E+05 -1.176944E+04  1.787861E-09  1.350815E-09
         2  17  7.018316E+06 -7.160272E+03  7.419721E+04 -2.459906E+03  3.305525E-11 -6.031703E-10
         2  18  7.028033E+06  5.542444E+03  7.364097E+04  6.849600E+03 -8.302378E-10  7.922926E-10
         2  19  7.027898E+06  3.795257E+04  1.137009E+05  1.176944E+04 -6.500433E+04 -1.219109E+00
         2  20  7.018317E+06 -7.160078E+03  7.419857E+04  2.459906E+03 -2.707687E+04 -1.061366E-01
         2  21  7.028033E+06  5.542475E+03  7.364119E+04 -6.849600E+03  1.085027E+04 -1.184262E-01
         2  22  7.027898E+06  3.795231E+04  1.137009E+05  1.925131E-08 -6.500433E+04  6.210952E-10
         2  23  7.018317E+06 -7.160089E+03  7.419857E+04 -3.595952E-09 -2.707687E+04  6.420238E-10
         2  24  7.028033E+06  5.542388E+03  7.364118E+04 -2.370935E-08  1.085027E+04 -2.403598E-10
         2  25  7.027898E+06  3.795257E+04  1.137009E+05 -1.176944E+04 -6.500433E+04  1.219109E+00
         2  26  7.018317E+06 -7.160078E+03  7.419857E+04 -2.459906E+03 -2.707687E+04  1.061366E-01
         2  27  7.028033E+06  5.542475E+03  7.364119E+04  6.849600E+03  1.085027E+04  1.184262E-01
         3   1  7.030480E+06  6.003739E+02  7.907857E+04  1.050555E+04 -2.445176E+04 -4.093262E-01
         3   2  7.015209E+06 -1.147965E+04  1.056022E+05 -4.711813E+03 -7.864945E+04  5.905203E-01
         3   3  7.030147E+06  6.960254E+04  1.904199E+05 -1.992887E+04 -1.328480E+05  4.218750E+00
         3   4  7.030480E+06  6.001688E+02  7.907855E+04 -4.036473E-09 -2.445176E+04  4.934115E-10
         3   5  7.015209E+06 -1.147969E+04  1.056022E+05 -4.372372E-09 -7.864945E+04 -7.771347E-10
         3   6  7.030146E+06  6.960180E+04  1.904198E+05 -2.144835E-08 -1.328480E+05 -1.294458E-10
         3   7  7.030480E+06  6.003739E+02  7.907857E+04 -1.050555E+04 -2.445176E+04  4.093262E-01
         3   8  7.015209E+06 -1.147965E+04  1.056022E+05  4.711813E+03 -7.864945E+04 -5.905203E-01
         3   9  7.030147E+06  6.960254E+04  1.904199E+05  1.992887E+04 -1.328480E+05 -4.218750E+00
         3  10  7.030479E+06  6.002156E+02  7.907746E+04  1.050555E+04  8.216429E-10  2.474821E-10
         3  11  7.015203E+06 -1.148129E+04  1.055907E+05 -4.711813E+03 -5.104149E-10  3.157919E-10
         3  12  7.030128E+06  6.959786E+04  1.903871E+05 -1.992887E+04  6.649070E-10 -1.808800E-10
         3  13  7.030479E+06  6.000105E+02  7.907743E+04  2.707559E-10 -2.385641E-09  1.729767E-11
         3  14  7.015203E+06 -1.148133E+04  1.055907E+05  6.397458E-09 -7.479094E-27 -3.103767E-10
         3  15  7.030127E+06  6.959712E+04  1.903870E+05 -2.416103E-08 -3.369902E-10 -4.244419E-10
         3  16  7.030479E+06  6.002156E+02  7.907746E+04 -1.050555E+04  4.490619E-10 -4.329295E-10
         3  17  7.015203E+06 -1.148129E+04  1.055907E+05  4.711813E+03 -3.386071E-10 -5.864179E-10
         3  18  7.030128E+06  6.959786E+04  1.903871E+05  1.992887E+04 -1.569263E-10 -2.451664E-10
         3  19  7.030480E+06  6.003739E+02  7.907857E+04  1.050555E+04  2.445176E+04  4.093262E-01
         3  20  7.015209E+06 -1.147965E+04  1.056022E+05 -4.711813E+03  7.864945E+04 -5.905203E-01
         3  21  7.030147E+06  6.960254E+04  1.904199E+05 -1.992887E+04  1.328480E+05 -4.218750E+00
         3  22  7.030480E+06  6.001688E+02  7.907855E+04 -4.095702E-09  2.445176E+04 -5.531278E-10
         3  23  7.015209E+06 -1.147969E+04  1.056022E+05 -4.427407E-09  7.864945E+04  1.464275E-10
         3  24  7.030146E+06  6.960180E+04  1.904198E+05 -2.152461E-08  1.328480E+05 -9.093638E-10
         3  25  7.030480E+06  6.003739E+02  7.907857E+04 -1.050555E+04  2.445176E+04 -4.093262E-01
         3  26  7.015209E+06 -1.147965E+04  1.056022E+05  4.711813E+03  7.864945E+04  5.905203E-01
         3  27  7.030147E+06  6.960254E+04  1.904199E+05  1.992887E+04  1.328480E+05  4.218750E+00
         4   1  7.074117E+06 -3.209463E+04  2.295892E+05  8.372051E+04 -1.692146E+05 -2.257276E+01
         4   2  6.960151E+06 -9.685879E+04  3.593805E+05 -5.623330E+04 -3.635565E+05  3.258051E+01
         4   3  7.071865E+06  6.430382E+05  8.159361E+05 -1.962150E+05 -5.578898E+05  1.744348E+02
         4   4  7.074109E+06 -3.210766E+04  2.295874E+05 -1.448641E-08 -1.692146E+05  1.738327E-10
         4   5  6.960148E+06 -9.686466E+04  3.593796E+05  4.068833E-09 -3.635565E+05  4.147845E-10
         4   6  7.071824E+06  6.429667E+05  8.159259E+05 -8.185462E-09 -5.578898E+05  7.482304E-10
         4   7  7.074117E+06 -3.209463E+04  2.295892E+05 -8.372051E+04 -1.692146E+05  2.257276E+01
         4   8  6.960151E+06 -9.685879E+04  3.593805E+05  5.623330E+04 -3.635565E+05 -3.258051E+01
         4   9  7.071865E+06  6.430382E+05  8.159361E+05  1.962150E+05 -5.578898E+05 -1.744348E+02
         4  10  7.074086E+06 -3.210221E+04  2.295360E+05  8.372050E+04  6.976885E-10  1.081900E-10
         4  11  6.960010E+06 -9.689377E+04  3.591349E+05 -5.623330E+04  9.903512E-11  1.087216E-09
         4  12  7.071533E+06  6.429558E+05  8.153578E+05 -1.962149E+05  7.055409E-10  3.883928E-10
         4  13  7.074079E+06 -3.211524E+04  2.295342E+05 -5.754091E-09  5.147352E-10 -2.038354E-10
         4  14  6.960007E+06 -9.689965E+04  3.591340E+05  8.404837E-09 -3.080201E-09  5.497585E-10
         4  15  7.071492E+06  6.428843E+05  8.153476E+05 -2.290379E-09 -1.228365E-09  2.768647E-10
         4  16  7.074086E+06 -3.210221E+04  2.295360E+05 -8.372050E+04  1.403568E-09  2.518870E-11
         4  17  6.960010E+06 -9.689377E+04  3.591349E+05  5.623330E+04  4.099999E-10  2.783682E-10
         4  18  7.071533E+06  6.429558E+05  8.153578E+05  1.962149E+05 -1.383566E-09 -1.086637E-10
         4  19  7.074117E+06 -3.209463E+04  2.295892E+05  8.372051E+04  1.692146E+05  2.257276E+01
         4  20  6.960151E+06 -9.685879E+04  3.593805E+05 -5.623330E+04  3.635565E+05 -3.258051E+01
         4  21  7.071865E+06  6.430382E+05  8.159361E+05 -1.962150E+05  5.578898E+05 -1.744348E+02
         4  22  7.074109E+06 -3.210766E+04  2.295874E+05 -1.433413E-08  1.692146E+05 -3.065705E-10
         4  23  6.960148E+06 -9.686466E+04  3.593796E+05  6.258277E-09  3.635565E+05  7.964315E-10
         4  24  7.071824E+06  6.429667E+05  8.159259E+05 -8.763403E-09  5.578898E+05 -1.874947E-10
         4  25  7.074117E+06 -3.209463E+04  2.295892E+05 -8.372051E+04  1.692146E+05 -2.257276E+01
         4  26  6.960151E+06 -9.685879E+04  3.593805E+05  5.623330E+04  3.635565E+05  3.258051E+01
         4  27  7.071865E+06  6.430382E+05  8.159361E+05  1.962150E+05  5.578898E+05  1.744348E+02
         5   1 -1.719570E+06 -3.340642E+06 -1.869807E+06  6.295299E+05 -4.165483E+04 -5.864225E+05
         5   2 -8.062347E+05 -2.387913E+06 -1.200291E+06  1.636140E+05 -1.145255E+05 -3.574565E+05
         5   3 -6.503191E+05 -1.643501E+06 -8.677187E+05  3.602977E+05 -8.304679E+04 -1.284843E+05
         5   4 -6.058745E+05  1.119483E+06 -7.656686E+05  4.522823E+05 -4.137230E+04 -5.287495E+05
         5   5  8.875948E+04  1.219236E+06 -3.330982E+05  1.203397E+05 -1.144194E+05 -3.484739E+05
         5   6  3.696354E+04  1.120073E+06 -2.019360E+05  4.509658E+05 -8.328343E+04 -1.685207E+05
         5   7  5.064576E+05  5.597793E+06  3.370221E+05  2.737416E+05 -4.112438E+04 -4.706500E+05
         5   8  9.828161E+05  4.838316E+06  5.331711E+05  7.680059E+04 -1.143149E+05 -3.394345E+05
         5   9  7.237176E+05  3.890655E+06  4.633112E+05  5.420267E+05 -8.353119E+04 -2.087337E+05
         5  10 -1.719665E+06 -3.341013E+06 -1.870460E+06  6.295103E+05  7.133462E-10  6.584042E-10
         5  11 -8.062833E+05 -2.388054E+06 -1.200556E+06  1.635810E+05  1.151437E-09  5.674401E-11
         5  12 -6.503310E+05 -1.643521E+06 -8.677627E+05  3.602891E+05  1.930666E-10 -1.155698E-11
         5  13 -6.059512E+05  1.119183E+06 -7.661962E+05  4.522647E+05 -1.652218E-09 -1.785097E-11
         5  14  8.871289E+04  1.219102E+06 -3.333506E+05  1.203076E+05  1.722969E-09 -3.207114E-11
         5  15  3.694849E+04  1.120040E+06 -2.020022E+05  4.509545E+05  9.430222E-10 -3.573548E-10
         5  16  5.063969E+05  5.597557E+06  3.366064E+05  2.737261E+05 -3.470688E-10 -7.479799E-10
         5  17  9.827714E+05  4.838190E+06  5.329317E+05  7.676942E+04  1.317338E-09 -1.154769E-10
         5  18  7.236985E+05  3.890607E+06  4.632168E+05  5.420127E+05  1.106994E-10 -1.216272E-10
         5  19 -1.719570E+06 -3.340642E+06 -1.869807E+06  6.295299E+05  4.165483E+04  5.864225E+05
         5  20 -8.062347E+05 -2.387913E+06 -1.200291E+06  1.636140E+05  1.145255E+05  3.574565E+05
         5  21 -6.503191E+05 -1.643501E+06 -8.677187E+05  3.602977E+05  8.304679E+04  1.284843E+05
         5  22 -6.058745E+05  1.119483E+06 -7.656686E+05  4.522823E+05  4.137230E+04  5.287495E+05
         5  23  8.875948E+04  1.219236E+06 -3.330982E+05  1.203397E+05  1.144194E+05  3.484739E+05
         5  24  3.696354E+04  1.120073E+06 -2.019360E+05  4.509658E+05  8.328343E+04  1.685207E+05
         5  25  5.064576E+05  5.597793E+06  3.370221E+05  2.737416E+05  4.112438E+04  4.706500E+05
         5  26  9.828161E+05  4.838316E+06  5.331711E+05  7.680059E+04  1.143149E+05  3.394345E+05
         5  27  7.237176E+05  3.890655E+06  4.633112E+05  5.420267E+05  8.353119E+04  2.087337E+05
         6   1 -4.509210E+05 -4.090489E+05 -5.392830E+05  4.591797E+05 -4.787013E+04 -1.260934E+05
         6   2 -1.710549E+05  4.430432E+05 -2.453598E+05  1.237769E+05 -2.271279E+04 -8.939315E+04
         6   3  4.782258E+04  1.265442E+06  7.080871E+03  4.441627E+05  4.752616E+03 -5.270426E+04
         6   4 -6.215141E+04  1.159151E+06 -1.620625E+05  4.503279E+05 -4.793871E+04 -1.376701E+05
         6   5  1.014431E+04  1.174244E+06 -6.961926E+04  1.221659E+05 -2.279960E+04 -1.019803E+05
         6   6  2.175681E+04  1.159290E+06 -1.778399E+04  4.497558E+05  4.645441E+03 -6.635098E+04
         6   7  3.264400E+05  2.729601E+06  2.149837E+05  4.414490E+05 -4.800687E+04 -1.492755E+05
         6   8  1.913048E+05  1.905935E+06  1.060839E+05  1.205520E+05 -2.288629E+04 -1.145822E+05
         6   9 -4.309538E+03  1.053149E+06 -4.264889E+04  4.553480E+05  4.538011E+03 -7.999540E+04
         6  10 -4.509278E+05 -4.090666E+05 -5.393172E+05  4.591748E+05  9.164727E-10  2.282256E-10
         6  11 -1.710576E+05  4.430345E+05 -2.453758E+05  1.237753E+05 -1.129869E-09 -4.113916E-10
         6  12  4.782181E+04  1.265439E+06  7.075618E+03  4.441629E+05  8.507520E-11 -9.438887E-10
         6  13 -6.215895E+04  1.159130E+06 -1.621023E+05  4.503226E+05  1.944091E-09 -1.505992E-10
         6  14  1.014097E+04  1.174233E+06 -6.963974E+04  1.221640E+05 -1.557222E-09 -1.184202E-10
         6  15  2.175560E+04  1.159285E+06 -1.779229E+04  4.497561E+05 -1.073724E-09 -7.256864E-11
         6  16  3.264316E+05  2.729576E+06  2.149377E+05  4.414432E+05  1.859702E-09 -1.772128E-10
         6  17  1.913007E+05  1.905920E+06  1.060584E+05  1.205499E+05  2.888249E-09  3.599079E-10
         6  18 -4.311275E+03  1.053142E+06 -4.266094E+04  4.553483E+05  1.667723E-09  6.415260E-10
         6  19 -4.509210E+05 -4.090489E+05 -5.392830E+05  4.591797E+05  4.787013E+04  1.260934E+05
         6  20 -1.710549E+05  4.430432E+05 -2.453598E+05  1.237769E+05  2.271279E+04  8.939315E+04
         6  21  4.782258E+04  1.265442E+06  7.080871E+03  4.441627E+05 -4.752616E+03  5.270426E+04
         6  22 -6.215141E+04  1.159151E+06 -1.620625E+05  4.503279E+05  4.793871E+04  1.376701E+05
         6  23  1.014431E+04  1.174244E+06 -6.961926E+04  1.221659E+05  2.279960E+04  1.019803E+05
         6  24  2.175681E+04  1.159290E+06 -1.778399E+04  4.497558E+05 -4.645441E+03  6.635098E+04
         6  25  3.264400E+05  2.729601E+06  2.149837E+05  4.414490E+05  4.800687E+04  1.492755E+05
         6  26  1.913048E+05  1.905935E+06  1.060839E+05  1.205520E+05  2.288629E+04  1.145822E+05
         6  27 -4.309538E+03  1.053149E+06 -4.264889E+04  4.553480E+05 -4.538011E+03  7.999540E+04
         7   1  3.153304E+05  2.472175E+06  3.143089E+05  4.448685E+05  3.599127E+04 -3.268468E+04
         7   2  5.139544E+05  3.294510E+06  5.569032E+05  1.408218E+05  6.679576E+04 -9.272905E+04
         7   3  8.582841E+05  4.158145E+06  8.738755E+05  4.932491E+05  2.500949E+04 -1.524248E+05
         7   4 -6.291307E+03  1.173245E+06  1.614341E+03  4.503775E+05  3.575048E+04 -6.508661E+04
         7   5 -1.543035E+04  1.155498E+06  4.453888E+04  1.217750E+05  6.682831E+04 -9.005357E+04
         7   6  1.153853E+05  1.172549E+06  1.377809E+05  4.497551E+05  2.520958E+04 -1.145888E+05
         7   7 -3.280349E+05 -1.241446E+05 -3.111964E+05  4.558716E+05  3.550885E+04 -9.742109E+04
         7   8 -5.451454E+05 -9.793407E+05 -4.681488E+05  1.027872E+05  6.686076E+04 -8.738680E+04
         7   9 -6.281696E+05 -1.804979E+06 -5.989665E+05  4.064569E+05  2.540496E+04 -7.693250E+04
         7  10  3.153287E+05  2.472174E+06  3.143044E+05  4.448695E+05 -6.708215E-10  6.387910E-10
         7  11  5.139473E+05  3.294500E+06  5.568788E+05  1.408268E+05  4.757472E-10  1.038392E-10
         7  12  8.582772E+05  4.158120E+06  8.738309E+05  4.932522E+05  1.351135E-09 -6.288052E-10
         7  13 -6.293818E+03  1.173240E+06  1.603984E+03  4.503794E+05 -5.975252E-10 -2.425395E-10
         7  14 -1.543733E+04  1.155488E+06  4.451526E+04  1.217798E+05 -2.252181E-09 -1.068825E-10
         7  15  1.153811E+05  1.172535E+06  1.377550E+05  4.497574E+05  1.825924E-09  2.893400E-12
         7  16 -3.280388E+05 -1.241551E+05 -3.112166E+05  4.558744E+05  1.258188E-09 -9.556405E-10
         7  17 -5.451522E+05 -9.793502E+05 -4.681716E+05  1.027919E+05  1.182011E-09 -1.904748E-10
         7  18 -6.281719E+05 -1.804986E+06 -5.989789E+05  4.064584E+05  5.174392E-10  6.098654E-10
         7  19  3.153304E+05  2.472175E+06  3.143089E+05  4.448685E+05 -3.599127E+04  3.268468E+04
         7  20  5.139544E+05  3.294510E+06  5.569032E+05  1.408218E+05 -6.679576E+04  9.272905E+04
         7  21  8.582841E+05  4.158145E+06  8.738755E+05  4.932491E+05 -2.500949E+04  1.524248E+05
         7  22 -6.291307E+03  1.173245E+06  1.614341E+03  4.503775E+05 -3.575048E+04  6.508661E+04
         7  23 -1.543035E+04  1.155498E+06  4.453888E+04  1.217750E+05 -6.682831E+04  9.005357E+04
         7  24  1.153853E+05  1.172549E+06  1.377809E+05  4.497551E+05 -2.520958E+04  1.145888E+05
         7  25 -3.280349E+05 -1.241446E+05 -3.111964E+05  4.558716E+05 -3.550885E+04  9.742109E+04
         7  26 -5.451454E+05 -9.793407E+05 -4.681488E+05  1.027872E+05 -6.686076E+04  8.738680E+04
         7  27 -6.281696E+05 -1.804979E+06 -5.989665E+05  4.064569E+05 -2.540496E+04  7.693250E+04
         8   1  3.393762E+06  1.897241E+06  4.667386E+04  2.563762E+06  1.589645E+05  1.324415E+05
         8   2  3.362677E+06  1.763959E+06 -9.439985E+04  2.734186E+06  9.420063E+04  1.091553E+05
         8   3  3.608685E+06  1.763994E+06 -1.124542E+05  2.763224E+06  4.438304E+04  6.588702E+04
         8   4  4.300912E+06  2.413051E+06  3.265955E+05  2.953426E+06  1.718378E+05  1.420559E+05
         8   5  4.113165E+06  2.259113E+06  1.441429E+05  3.089125E+06  9.731277E+04  1.114746E+05
         8   6  4.204369E+06  2.240355E+06  9.295007E+04  3.083491E+06  3.774358E+04  6.092585E+04
         8   7  5.208927E+06  2.929101E+06  6.064249E+05  3.343650E+06  1.847366E+05  1.516844E+05
         8   8  4.864241E+06  2.754512E+06  3.826154E+05  3.444520E+06  1.004299E+05  1.137973E+05
         8   9  4.800423E+06  2.716970E+06  2.983033E+05  3.404118E+06  3.109553E+04  5.595714E+04
         8  10  3.393730E+06  1.897216E+06  4.659408E+04  2.563745E+06 -1.968290E-09 -1.169716E-10
         8  11  3.362665E+06  1.763944E+06 -9.443860E+04  2.734178E+06 -3.042475E-09 -7.857814E-10
         8  12  3.608681E+06  1.763989E+06 -1.124659E+05  2.763222E+06  4.270382E-09  5.042825E-10
         8  13  4.300875E+06  2.413022E+06  3.265030E+05  2.953406E+06 -2.203689E-09 -2.481694E-10
         8  14  4.113152E+06  2.259097E+06  1.441022E+05  3.089116E+06  9.447945E-10  3.806097E-10
         8  15  4.204366E+06  2.240351E+06  9.294050E+04  3.083490E+06  3.567743E-09  1.055944E-09
         8  16  5.208885E+06  2.929067E+06  6.063188E+05  3.343628E+06  2.570046E-10  3.919248E-10
         8  17  4.864227E+06  2.754495E+06  3.825726E+05  3.444511E+06  9.416003E-10  1.270712E-09
         8  18  4.800421E+06  2.716966E+06  2.982957E+05  3.404116E+06  3.147308E-09  1.314584E-09
         8  19  3.393762E+06  1.897241E+06  4.667386E+04  2.563762E+06 -1.589645E+05 -1.324415E+05
         8  20  3.362677E+06  1.763959E+06 -9.439985E+04  2.734186E+06 -9.420063E+04 -1.091553E+05
         8  21  3.608685E+06  1.763994E+06 -1.124542E+05  2.763224E+06 -4.438304E+04 -6.588702E+04
         8  22  4.300912E+06  2.413051E+06  3.265955E+05  2.953426E+06 -1.718378E+05 -1.420559E+05
         8  23  4.113165E+06  2.259113E+06  1.441429E+05  3.089125E+06 -9.731277E+04 -1.114746E+05
         8  24  4.204369E+06  2.240355E+06  9.295007E+04  3.083491E+06 -3.774358E+04 -6.092585E+04
         8  25  5.208927E+06  2.929101E+06  6.064249E+05  3.343650E+06 -1.847366E+05 -1.516844E+05
         8  26  4.864241E+06  2.754512E+06  3.826154E+05  3.444520E+06 -1.004299E+05 -1.137973E+05
         8  27  4.800423E+06  2.716970E+06  2.983033E+05  3.404118E+06 -3.109553E+04 -5.595714E+04
         9   1  3.699322E+06  1.919790E+06 -8.529126E+04  2.812770E+06  3.053989E+04  4.734653E+04
         9   2  3.731115E+06  1.995742E+06 -8.982607E+04  2.879003E+06  1.449176E+04  3.191773E+04
         9   3  3.871559E+06  2.011807E+06 -7.088864E+04  2.907717E+06 -5.406470E+02  1.511380E+04
         9   4  4.203916E+06  2.263808E+06  7.762029E+04  3.056486E+06  2.983474E+04  4.681714E+04
         9   5  4.144552E+06  2.284702E+06  4.481790E+04  3.082011E+06  1.310584E+04  3.088160E+04
         9   6  4.193953E+06  2.245839E+06  3.605445E+04  3.070014E+06 -2.604165E+03  1.357371E+04
         9   7  4.708778E+06  2.607949E+06  2.405002E+05  3.300417E+06  2.912880E+04  4.628719E+04
         9   8  4.558166E+06  2.573748E+06  1.794396E+05  3.285166E+06  1.171867E+04  2.984454E+04
         9   9  4.516453E+06  2.479928E+06  1.429830E+05  3.232405E+06 -4.669121E+03  1.203251E+04
         9  10  3.699321E+06  1.919788E+06 -8.529718E+04  2.812769E+06  3.709659E-09  1.128260E-09
         9  11  3.731115E+06  1.995741E+06 -8.982836E+04  2.879003E+06 -1.895913E-09 -4.215423E-10
         9  12  3.871559E+06  2.011806E+06 -7.088907E+04  2.907717E+06 -4.476903E-09 -1.863032E-09
         9  13  4.203915E+06  2.263806E+06  7.761455E+04  3.056485E+06  3.049734E-09  5.415612E-10
         9  14  4.144551E+06  2.284701E+06  4.481580E+04  3.082010E+06 -7.252884E-09 -1.639504E-09
         9  15  4.193953E+06  2.245839E+06  3.605409E+04  3.070014E+06 -3.841838E-09 -1.666915E-09
         9  16  4.708777E+06  2.607947E+06  2.404946E+05  3.300416E+06 -1.426826E-09 -1.306775E-09
         9  17  4.558166E+06  2.573747E+06  1.794377E+05  3.285166E+06 -5.307409E-09 -2.339225E-09
         9  18  4.516453E+06  2.479928E+06  1.429827E+05  3.232405E+06 -3.587082E-09 -1.888970E-09
         9  19  3.699322E+06  1.919790E+06 -8.529126E+04  2.812770E+06 -3.053989E+04 -4.734653E+04
         9  20  3.731115E+06  1.995742E+06 -8.982607E+04  2.879003E+06 -1.449176E+04 -3.191773E+04
         9  21  3.871559E+06  2.011807E+06 -7.088864E+04  2.907717E+06  5.406470E+02 -1.511380E+04
         9  22  4.203916E+06  2.263808E+06  7.762029E+04  3.056486E+06 -2.983474E+04 -4.681714E+04
         9  23  4.144552E+06  2.284702E+06  4.481790E+04  3.082011E+06 -1.310584E+04 -3.088160E+04
         9  24  4.193953E+06  2.245839E+06  3.605445E+04  3.070014E+06  2.604165E+03 -1.357371E+04
         9  25  4.708778E+06  2.607949E+06  2.405002E+05  3.300417E+06 -2.912880E+04 -4.628719E+04
         9  26  4.558166E+06  2.573748E+06  1.794396E+05  3.285166E+06 -1.171867E+04 -2.984454E+04
         9  27  4.516453E+06  2.479928E+06  1.429830E+05  3.232405E+06  4.669121E+03 -1.203251E+04
        10   1  3.978026E+06  2.101277E+06 -3.370537E+04  2.964219E+06 -4.449517E+03  8.672224E+03
        10   2  4.014315E+06  2.189432E+06 -3.652540E+03  3.014347E+06 -1.829186E+04 -6.777418E+03
        10   3  4.140266E+06  2.211009E+06  4.363100E+04  3.036227E+06 -3.215987E+04 -2.220188E+04
        10   4  4.192344E+06  2.249034E+06  3.542299E+04  3.068566E+06 -6.048493E+03  7.479300E+03
        10   5  4.148794E+06  2.284638E+06  4.037626E+04  3.080951E+06 -1.988210E+04 -7.963401E+03
        10   6  4.194894E+06  2.253659E+06  6.255032E+04  3.065082E+06 -3.373862E+04 -2.337902E+04
        10   7  4.406711E+06  2.396814E+06  1.045455E+05  3.172953E+06 -7.648216E+03  6.285836E+03
        10   8  4.283293E+06  2.379854E+06  8.440282E+04  3.147570E+06 -2.147282E+04 -9.149736E+03
        10   9  4.249526E+06  2.296310E+06  8.146932E+04  3.093940E+06 -3.531757E+04 -2.455631E+04
        10  10  3.978026E+06  2.101277E+06 -3.370555E+04  2.964219E+06 -3.827634E-09 -1.225553E-09
        10  11  4.014315E+06  2.189432E+06 -3.653249E+03  3.014347E+06 -1.078024E-09  1.176437E-09
        10  12  4.140265E+06  2.211009E+06  4.362816E+04  3.036227E+06 -3.342364E-09  1.310248E-09
        10  13  4.192344E+06  2.249034E+06  3.542281E+04  3.068567E+06 -2.221180E-09 -3.546030E-10
        10  14  4.148794E+06  2.284638E+06  4.037541E+04  3.080951E+06 -2.442461E-09  1.436576E-09
        10  15  4.194893E+06  2.253658E+06  6.254719E+04  3.065082E+06 -2.949220E-09 -1.251688E-10
        10  16  4.406711E+06  2.396814E+06  1.045453E+05  3.172954E+06 -3.581591E-09  8.794210E-10
        10  17  4.283292E+06  2.379854E+06  8.440181E+04  3.147570E+06 -1.733450E-09  2.275035E-09
        10  18  4.249524E+06  2.296309E+06  8.146588E+04  3.093940E+06 -2.002124E-09 -1.395307E-09
        10  19  3.978026E+06  2.101277E+06 -3.370537E+04  2.964219E+06  4.449517E+03 -8.672224E+03
        10  20  4.014315E+06  2.189432E+06 -3.652540E+03  3.014347E+06  1.829186E+04  6.777418E+03
        10  21  4.140266E+06  2.211009E+06  4.363100E+04  3.036227E+06  3.215987E+04  2.220188E+04
        10  22  4.192344E+06  2.249034E+06  3.542299E+04  3.068566E+06  6.048493E+03 -7.479300E+03
        10  23  4.148794E+06  2.284638E+06  4.037626E+04  3.080951E+06  1.988210E+04  7.963401E+03
        10  24  4.194894E+06  2.253659E+06  6.255032E+04  3.065082E+06  3.373862E+04  2.337902E+04
        10  25  4.406711E+06  2.396814E+06  1.045455E+05  3.172953E+06  7.648216E+03 -6.285836E+03
        10  26  4.283293E+06  2.379854E+06  8.440282E+04  3.147570E+06  2.147282E+04  9.149736E+03
        10  27  4.249526E+06  2.296310E+06  8.146932E+04  3.093940E+06  3.531757E+04  2.455631E+04
        11   1  4.233544E+06  2.295596E+06  9.411262E+04  3.104023E+06 -4.033584E+04 -3.153916E+04
        11   2  4.273957E+06  2.358647E+06  1.664503E+05  3.144552E+06 -8.953826E+04 -7.339774E+04
        11   3  4.459119E+06  2.430104E+06  3.094236E+05  3.123761E+06 -1.394229E+05 -1.143608E+05
        11   4  4.194274E+06  2.247161E+06  7.702571E+04  3.075037E+06 -4.215814E+04 -3.289636E+04
        11   5  4.138931E+06  2.273720E+06  1.243110E+05  3.082620E+06 -9.091043E+04 -7.442254E+04
        11   6  4.228253E+06  2.308607E+06  2.418681E+05  3.028878E+06 -1.403342E+05 -1.150499E+05
        11   7  4.155007E+06  2.198729E+06  5.993863E+04  3.046054E+06 -4.398028E+04 -3.425333E+04
        11   8  4.003924E+06  2.188799E+06  8.216972E+04  3.020701E+06 -9.228220E+04 -7.544707E+04
        11   9  3.997445E+06  2.187123E+06  1.743074E+05  2.934028E+06 -1.412450E+05 -1.157387E+05
        11  10  4.233542E+06  2.295594E+06  9.410774E+04  3.104021E+06 -1.468028E-09 -1.132476E-09
        11  11  4.273947E+06  2.358639E+06  1.664254E+05  3.144547E+06  1.351313E-10 -1.509571E-09
        11  12  4.459094E+06  2.430085E+06  3.093631E+05  3.123749E+06  1.563536E-09 -1.358355E-09
        11  13  4.194272E+06  2.247159E+06  7.702039E+04  3.075036E+06 -4.867554E-09 -1.402304E-09
        11  14  4.138921E+06  2.273712E+06  1.242854E+05  3.082614E+06  1.473940E-09 -1.586919E-09
        11  15  4.228229E+06  2.308588E+06  2.418069E+05  3.028865E+06 -2.079100E-09 -5.254531E-10
        11  16  4.155004E+06  2.198728E+06  5.993285E+04  3.046053E+06 -1.362873E-09 -1.474008E-09
        11  17  4.003914E+06  2.188791E+06  8.214328E+04  3.020696E+06 -1.364502E-09 -1.254215E-09
        11  18  3.997420E+06  2.187104E+06  1.742454E+05  2.934015E+06 -6.859135E-10 -6.401501E-10
        11  19  4.233544E+06  2.295596E+06  9.411262E+04  3.104023E+06  4.033584E+04  3.153916E+04
        11  20  4.273957E+06  2.358647E+06  1.664503E+05  3.144552E+06  8.953826E+04  7.339774E+04
        11  21  4.459119E+06  2.430104E+06  3.094236E+05  3.123761E+06  1.394229E+05  1.143608E+05
        11  22  4.194274E+06  2.247161E+06  7.702571E+04  3.075037E+06  4.215814E+04  3.289636E+04
        11  23  4.138931E+06  2.273720E+06  1.243110E+05  3.082620E+06  9.091043E+04  7.442254E+04
        11  24  4.228253E+06  2.308607E+06  2.418681E+05  3.028878E+06  1.403342E+05  1.150499E+05
        11  25  4.155007E+06  2.198729E+06  5.993863E+04  3.046054E+06  4.398028E+04  3.425333E+04
        11  26  4.003924E+06  2.188799E+06  8.216972E+04  3.020701E+06  9.228220E+04  7.544707E+04
        11  27  3.997445E+06  2.187123E+06  1.743074E+05  2.934028E+06  1.412450E+05  1.157387E+05
        12   1  4.434160E+06  2.572777E+06  4.000453E+05  3.310240E+06 -1.702076E+05 -1.433145E+05
        12   2  4.525344E+06  2.392857E+06  6.014333E+05  3.281958E+06 -3.770260E+05 -3.028795E+05
        12   3  5.273317E+06  2.910525E+06  1.235917E+06  2.863726E+06 -5.929952E+05 -4.502468E+05
        12   4  4.219373E+06  2.241439E+06  2.954058E+05  3.120660E+06 -1.747288E+05 -1.466395E+05
        12   5  4.049437E+06  2.177215E+06  4.691257E+05  3.102410E+06 -3.754718E+05 -3.017912E+05