
 stresses (elem, integ.pnt.,sxx,syy,szz,sxy,sxz,syz) for set ELALL and time  0.2500000E+00

         1   1  6.359274E+05  2.297602E+06  6.028063E+05 -4.590148E+05  2.902210E+04  2.360899E+05
         1   2  5.113283E+05  1.956479E+06  4.021436E+05 -4.237268E+05  9.642592E+04  1.090624E+05
         1   3  4.206180E+05  1.640629E+06  2.925182E+05 -4.391487E+05  1.126496E+05 -1.787504E+04
         1   4  3.042139E+04 -1.625730E+05  3.230915E+04 -4.367785E+05  2.920943E+04  2.145581E+04
         1   5  1.055230E+04 -1.647050E+05  1.722508E+04 -4.114391E+05  9.655845E+04  1.278963E+04
         1   6  4.124474E+03 -1.621206E+05  1.117697E+04 -4.368068E+05  1.126507E+05  4.137659E+03
         1   7 -5.754840E+05 -2.617071E+06 -5.384215E+05 -4.146278E+05  2.938203E+04 -1.923364E+05
         1   8 -4.904710E+05 -2.281500E+06 -3.678376E+05 -3.991919E+05  9.668752E+04 -8.316399E+04
         1   9 -4.125281E+05 -1.961632E+06 -2.702397E+05 -4.344700E+05  1.126519E+05  2.608895E+04
         1  10  6.359116E+05  2.297542E+06  6.027003E+05 -4.590203E+05  6.957848E-10 -2.242943E-08
         1  11  5.113151E+05  1.956464E+06  4.021038E+05 -4.237353E+05 -1.016962E-09  7.526469E-09
         1  12  4.206043E+05  1.640625E+06  2.924938E+05 -4.391471E+05 -6.023569E-09  3.856947E-08
         1  13  3.042035E+04 -1.625737E+05  3.230668E+04 -4.367790E+05  2.032898E-09 -5.151292E-11
         1  14  1.054224E+04 -1.647076E+05  1.720725E+04 -4.114401E+05  7.029487E-09  2.359112E-11
         1  15  4.110843E+03 -1.621241E+05  1.115309E+04 -4.368072E+05  1.170606E-08  5.043262E-11
         1  16 -5.754949E+05 -2.617111E+06 -5.384929E+05 -4.146233E+05 -6.887218E-10  2.232044E-08
         1  17 -4.904829E+05 -2.281510E+06 -3.678682E+05 -3.991855E+05 -3.460206E-09 -7.527862E-09
         1  18 -4.125420E+05 -1.961636E+06 -2.702648E+05 -4.344723E+05 -5.389048E-09 -3.839123E-08
         1  19  6.359274E+05  2.297602E+06  6.028063E+05 -4.590148E+05 -2.902210E+04 -2.360899E+05
         1  20  5.113283E+05  1.956479E+06  4.021436E+05 -4.237268E+05 -9.642592E+04 -1.090624E+05
         1  21  4.206180E+05  1.640629E+06  2.925182E+05 -4.391487E+05 -1.126496E+05  1.787504E+04
         1  22  3.042139E+04 -1.625730E+05  3.230915E+04 -4.367785E+05 -2.920943E+04 -2.145581E+04
         1  23  1.055230E+04 -1.647050E+05  1.722508E+04 -4.114391E+05 -9.655845E+04 -1.278963E+04
         1  24  4.124474E+03 -1.621206E+05  1.117697E+04 -4.368068E+05 -1.126507E+05 -4.137659E+03
         1  25 -5.754840E+05 -2.617071E+06 -5.384215E+05 -4.146278E+05 -2.938203E+04  1.923364E+05
         1  26 -4.904710E+05 -2.281500E+06 -3.678376E+05 -3.991919E+05 -9.668752E+04  8.316399E+04
         1  27 -4.125281E+05 -1.961632E+06 -2.702397E+05 -4.344700E+05 -1.126519E+05 -2.608895E+04
         2   1  3.707025E+05  1.433038E+06  2.512221E+05 -4.407876E+05  1.048666E+05 -2.229008E+04
         2   2  2.920406E+05  1.102794E+06  1.897333E+05 -4.112201E+05  9.086642E+04 -4.228556E+04
         2   3  2.194648E+05  7.767659E+05  1.427619E+05 -4.361438E+05  7.028656E+04 -6.228910E+04
         2   4  3.520323E+03 -1.627130E+05  9.844310E+03 -4.376495E+05  1.048555E+05  2.499653E+03
         2   5  2.938189E+03 -1.633113E+05  9.583530E+03 -4.104001E+05  9.081910E+04 -2.305091E+03
         2   6  5.817300E+03 -1.624315E+05  1.330677E+04 -4.376481E+05  7.019608E+04 -7.127766E+03
         2   7 -3.637830E+05 -1.755914E+06 -2.315836E+05 -4.345182E+05  1.048446E+05  2.722828E+04
         2   8 -2.862358E+05 -1.427794E+06 -1.705834E+05 -4.095807E+05  9.077182E+04  3.759746E+04
         2   9 -2.078674E+05 -1.100727E+06 -1.161469E+05 -4.391493E+05  7.010523E+04  4.795394E+04
         2  10  3.706906E+05  1.433035E+06  2.512006E+05 -4.407857E+05 -5.775384E-09 -3.705470E-08
         2  11  2.920312E+05  1.102790E+06  1.897144E+05 -4.112170E+05 -2.953464E-09 -5.880575E-09
         2  12  2.194585E+05  7.767604E+05  1.427453E+05 -4.361403E+05 -6.843364E-10  2.459186E-08
         2  13  3.508516E+03 -1.627159E+05  9.823638E+03 -4.376497E+05  1.015511E-08  3.065731E-12
         2  14  2.929332E+03 -1.633135E+05  9.568022E+03 -4.103999E+05  6.122269E-09  5.045452E-11
         2  15  5.811996E+03 -1.624328E+05  1.329742E+04 -4.376477E+05  1.970945E-09 -3.882434E-11
         2  16 -3.637950E+05 -1.755918E+06 -2.316056E+05 -4.345205E+05 -6.418518E-09  3.695413E-08
         2  17 -2.862450E+05 -1.427798E+06 -1.706015E+05 -4.095835E+05 -4.477969E-09  5.903739E-09
         2  18 -2.078733E+05 -1.100731E+06 -1.161605E+05 -4.391521E+05 -9.121021E-10 -2.466494E-08
         2  19  3.707025E+05  1.433038E+06  2.512221E+05 -4.407876E+05 -1.048666E+05  2.229008E+04
         2  20  2.920406E+05  1.102794E+06  1.897333E+05 -4.112201E+05 -9.086642E+04  4.228556E+04
         2  21  2.194648E+05  7.767659E+05  1.427619E+05 -4.361438E+05 -7.028656E+04  6.228910E+04
         2  22  3.520323E+03 -1.627130E+05  9.844310E+03 -4.376495E+05 -1.048555E+05 -2.499653E+03
         2  23  2.938189E+03 -1.633113E+05  9.583530E+03 -4.104001E+05 -9.081910E+04  2.305091E+03
         2  24  5.817300E+03 -1.624315E+05  1.330677E+04 -4.376481E+05 -7.019608E+04  7.127766E+03
         2  25 -3.637830E+05 -1.755914E+06 -2.315836E+05 -4.345182E+05 -1.048446E+05 -2.722828E+04
         2  26 -2.862358E+05 -1.427794E+06 -1.705834E+05 -4.095807E+05 -9.077182E+04 -3.759746E+04
         2  27 -2.078674E+05 -1.100727E+06 -1.161469E+05 -4.391493E+05 -7.010523E+04 -4.795394E+04
         3   1  1.744238E+05  5.743345E+05  1.165520E+05 -4.372610E+05  5.606677E+04 -6.489505E+04
         3   2  1.117691E+05  2.425877E+05  8.311287E+04 -3.921408E+05  3.187774E+04 -8.034895E+04
         3   3  7.186861E+04 -8.147164E+04  6.538633E+04 -4.019635E+05  7.383703E+03 -9.580150E+04
         3   4  7.415900E+03 -1.610420E+05  1.666577E+04 -4.377499E+05  5.596790E+04 -9.409736E+03
         3   5  1.954935E+04 -1.647165E+05  2.888243E+04 -4.102464E+05  3.177332E+04 -2.417089E+04
         3   6  5.432181E+04 -1.609468E+05  5.632007E+04 -4.376783E+05  7.274615E+03 -3.893762E+04
         3   7 -1.596138E+05 -8.958618E+05 -8.321424E+04 -4.382377E+05  5.586885E+04  4.601291E+04
         3   8 -7.267448E+04 -5.718440E+05 -2.533730E+04 -4.283395E+05  3.166557E+04  3.197205E+04
         3   9  3.678133E+04 -2.404058E+05  4.726670E+04 -4.733883E+05  7.158974E+03  1.791937E+04
         3  10  1.744193E+05  5.743291E+05  1.165382E+05 -4.372581E+05  5.257055E-10  1.562810E-09
         3  11  1.117663E+05  2.425805E+05  8.309884E+04 -3.921388E+05  5.500561E-10  1.493173E-09
         3  12  7.186609E+04 -8.148151E+04  6.536898E+04 -4.019630E+05 -9.578760E-11  1.636468E-09
         3  13  7.412513E+03 -1.610430E+05  1.665972E+04 -4.377495E+05  7.391354E-10 -3.108749E-12
         3  14  1.954811E+04 -1.647174E+05  2.887943E+04 -4.102458E+05 -1.115124E-09  5.642182E-11
         3  15  5.432135E+04 -1.609485E+05  5.631713E+04 -4.376781E+05 -4.045003E-10  1.775546E-11
         3  16 -1.596178E+05 -8.958649E+05 -8.322410E+04 -4.382398E+05 -1.197185E-09 -1.689172E-09
         3  17 -7.267583E+04 -5.718453E+05 -2.534111E+04 -4.283403E+05 -6.298761E-10 -1.487483E-09
         3  18  3.678119E+04 -2.404061E+05  4.726600E+04 -4.733884E+05 -2.748153E-10 -1.707305E-09
         3  19  1.744238E+05  5.743345E+05  1.165520E+05 -4.372610E+05 -5.606677E+04  6.489505E+04
         3  20  1.117691E+05  2.425877E+05  8.311287E+04 -3.921408E+05 -3.187774E+04  8.034895E+04
         3  21  7.186861E+04 -8.147164E+04  6.538633E+04 -4.019635E+05 -7.383703E+03  9.580150E+04
         3  22  7.415900E+03 -1.610420E+05  1.666577E+04 -4.377499E+05 -5.596790E+04  9.409736E+03
         3  23  1.954935E+04 -1.647165E+05  2.888243E+04 -4.102464E+05 -3.177332E+04  2.417089E+04
         3  24  5.432181E+04 -1.609468E+05  5.632007E+04 -4.376783E+05 -7.274615E+03  3.893762E+04
         3  25 -1.596138E+05 -8.958618E+05 -8.321424E+04 -4.382377E+05 -5.586885E+04 -4.601291E+04
         3  26 -7.267448E+04 -5.718440E+05 -2.533730E+04 -4.283395E+05 -3.166557E+04 -3.197205E+04
         3  27  3.678133E+04 -2.404058E+05  4.726670E+04 -4.733883E+05 -7.158974E+03 -1.791937E+04
         4   1 -2.293289E+06 -6.714802E+05 -4.662311E+05 -7.758588E+05 -2.946041E+05 -1.104269E+05
         4   2 -2.199594E+06 -2.494198E+05 -1.901759E+05 -8.673411E+05 -1.895327E+05 -7.104095E+04
         4   3 -2.291198E+06 -2.939243E+05 -1.195499E+05 -8.417531E+05 -8.442956E+04 -3.174033E+04
         4   4 -2.323104E+06 -6.377388E+05 -4.654458E+05 -7.376523E+05 -2.945848E+05 -1.104467E+05
         4   5 -2.207234E+06 -2.407239E+05 -1.899678E+05 -8.574995E+05 -1.895400E+05 -7.104816E+04
         4   6 -2.276660E+06 -3.102766E+05 -1.199037E+05 -8.602790E+05 -8.445902E+04 -3.174762E+04
         4   7 -2.352913E+06 -6.039885E+05 -4.646592E+05 -6.994470E+05 -2.945655E+05 -1.104665E+05
         4   8 -2.214874E+06 -2.320273E+05 -1.897596E+05 -8.476580E+05 -1.895473E+05 -7.105538E+04
         4   9 -2.262120E+06 -3.266268E+05 -1.202572E+05 -8.788051E+05 -8.448849E+04 -3.175491E+04
         4  10 -2.293386E+06 -6.715168E+05 -4.664178E+05 -7.758851E+05  4.731212E-10 -2.444971E-10
         4  11 -2.199634E+06 -2.494350E+05 -1.902532E+05 -8.673520E+05  2.545508E-10 -7.229104E-10
         4  12 -2.291206E+06 -2.939273E+05 -1.195653E+05 -8.417553E+05 -8.757541E-10  1.944134E-10
         4  13 -2.323201E+06 -6.377754E+05 -4.656326E+05 -7.376786E+05 -1.038812E-09 -1.960918E-10
         4  14 -2.207274E+06 -2.407390E+05 -1.900451E+05 -8.575104E+05 -2.550475E-09 -3.479140E-10
         4  15 -2.276668E+06 -3.102796E+05 -1.199191E+05 -8.602811E+05 -7.257049E-11  2.945085E-11
         4  16 -2.353010E+06 -6.040251E+05 -4.648459E+05 -6.994733E+05 -2.875433E-10 -2.029343E-10
         4  17 -2.214914E+06 -2.320425E+05 -1.898369E+05 -8.476689E+05  1.202395E-10  3.821692E-10
         4  18 -2.262128E+06 -3.266298E+05 -1.202725E+05 -8.788073E+05  1.327141E-09 -3.428144E-10
         4  19 -2.293289E+06 -6.714802E+05 -4.662311E+05 -7.758588E+05  2.946041E+05  1.104269E+05
         4  20 -2.199594E+06 -2.494198E+05 -1.901759E+05 -8.673411E+05  1.895327E+05  7.104095E+04
         4  21 -2.291198E+06 -2.939243E+05 -1.195499E+05 -8.417531E+05  8.442956E+04  3.174033E+04
         4  22 -2.323104E+06 -6.377388E+05 -4.654458E+05 -7.376523E+05  2.945848E+05  1.104467E+05
         4  23 -2.207234E+06 -2.407239E+05 -1.899678E+05 -8.574995E+05  1.895400E+05  7.104816E+04
         4  24 -2.276660E+06 -3.102766E+05 -1.199037E+05 -8.602790E+05  8.445902E+04  3.174762E+04
         4  25 -2.352913E+06 -6.039885E+05 -4.646592E+05 -6.994470E+05  2.945655E+05  1.104665E+05
         4  26 -2.214874E+06 -2.320273E+05 -1.897596E+05 -8.476580E+05  1.895473E+05  7.105538E+04
         4  27 -2.262120E+06 -3.266268E+05 -1.202572E+05 -8.788051E+05  8.448849E+04  3.175491E+04
         5   1 -2.244654E+06 -3.645248E+05 -9.541096E+04 -8.317760E+05 -6.633276E+04 -2.502563E+04
         5   2 -2.229780E+06 -3.010673E+05 -4.077912E+04 -8.433960E+05 -4.257137E+04 -1.619730E+04
         5   3 -2.241015E+06 -3.082688E+05 -2.246612E+04 -8.407152E+05 -1.881167E+04 -7.362992E+03
         5   4 -2.261393E+06 -3.645326E+05 -9.874896E+04 -8.298242E+05 -6.634637E+04 -2.503159E+04
         5   5 -2.244935E+06 -3.052601E+05 -4.462821E+04 -8.459372E+05 -4.258455E+04 -1.620237E+04
         5   6 -2.254586E+06 -3.166477E+05 -2.682732E+04 -8.477493E+05 -1.882436E+04 -7.367627E+03
         5   7 -2.278132E+06 -3.645403E+05 -1.020869E+05 -8.278724E+05 -6.635999E+04 -2.503755E+04
         5   8 -2.260089E+06 -3.094529E+05 -4.847731E+04 -8.484783E+05 -4.259773E+04 -1.620745E+04
         5   9 -2.268157E+06 -3.250265E+05 -3.118853E+04 -8.547833E+05 -1.883705E+04 -7.372261E+03
         5  10 -2.244659E+06 -3.645266E+05 -9.542045E+04 -8.317773E+05 -1.917122E-09  3.132748E-10
         5  11 -2.229782E+06 -3.010681E+05 -4.078304E+04 -8.433965E+05 -8.708904E-10 -1.856335E-10
         5  12 -2.241015E+06 -3.082690E+05 -2.246689E+04 -8.407153E+05 -1.678252E-09 -4.508483E-10
         5  13 -2.261398E+06 -3.645344E+05 -9.875845E+04 -8.298255E+05  2.025043E-09  3.355106E-10
         5  14 -2.244937E+06 -3.052609E+05 -4.463213E+04 -8.459377E+05 -5.848178E-10  2.017074E-10
         5  15 -2.254587E+06 -3.166479E+05 -2.682809E+04 -8.477495E+05 -2.005073E-11 -9.269184E-11
         5  16 -2.278137E+06 -3.645421E+05 -1.020964E+05 -8.278738E+05  1.140894E-09  4.305346E-10
         5  17 -2.260091E+06 -3.094537E+05 -4.848123E+04 -8.484789E+05 -3.110787E-10  2.182244E-10
         5  18 -2.268158E+06 -3.250266E+05 -3.118930E+04 -8.547834E+05 -4.717290E-10  1.245845E-10
         5  19 -2.244654E+06 -3.645248E+05 -9.541096E+04 -8.317760E+05  6.633276E+04  2.502563E+04
         5  20 -2.229780E+06 -3.010673E+05 -4.077912E+04 -8.433960E+05  4.257137E+04  1.619730E+04
         5  21 -2.241015E+06 -3.082688E+05 -2.246612E+04 -8.407152E+05  1.881167E+04  7.362992E+03
         5  22 -2.261393E+06 -3.645326E+05 -9.874896E+04 -8.298242E+05  6.634637E+04  2.503159E+04
         5  23 -2.244935E+06 -3.052601E+05 -4.462821E+04 -8.459372E+05  4.258455E+04  1.620237E+04
         5  24 -2.254586E+06 -3.166477E+05 -2.682732E+04 -8.477493E+05  1.882436E+04  7.367627E+03
         5  25 -2.278132E+06 -3.645403E+05 -1.020869E+05 -8.278724E+05  6.635999E+04  2.503755E+04
         5  26 -2.260089E+06 -3.094529E+05 -4.847731E+04 -8.484783E+05  4.259773E+04  1.620745E+04
         5  27 -2.268157E+06 -3.250265E+05 -3.118853E+04 -8.547833E+05  1.883705E+04  7.372261E+03
         6   1 -2.227067E+06 -3.156192E+05 -1.465382E+04 -8.370600E+05 -1.479616E+04 -5.907142E+03
         6   2 -2.224435E+06 -3.053457E+05 -3.343856E+03 -8.377059E+05 -9.362484E+03 -3.943995E+03
         6   3 -2.224556E+06 -3.067538E+05  1.212163E+03 -8.378571E+05 -3.941751E+03 -1.946497E+03
         6   4 -2.252331E+06 -3.243030E+05 -2.141371E+04 -8.430378E+05 -1.481238E+04 -5.913254E+03
         6   5 -2.250458E+06 -3.149896E+05 -1.043899E+04 -8.445844E+05 -9.371998E+03 -3.947569E+03
         6   6 -2.251340E+06 -3.173595E+05 -6.223732E+03 -8.456362E+05 -3.944564E+03 -1.947550E+03
         6   7 -2.277594E+06 -3.329869E+05 -2.817367E+04 -8.490154E+05 -1.482861E+04 -5.919366E+03
         6   8 -2.276481E+06 -3.246336E+05 -1.753419E+04 -8.514626E+05 -9.381511E+03 -3.951142E+03
         6   9 -2.278124E+06 -3.279651E+05 -1.365970E+04 -8.534150E+05 -3.947378E+03 -1.948603E+03
         6  10 -2.227067E+06 -3.156192E+05 -1.465430E+04 -8.370601E+05 -5.617514E-10 -2.450148E-10
         6  11 -2.224435E+06 -3.053457E+05 -3.344050E+03 -8.377060E+05  1.498451E-09 -4.614782E-11
         6  12 -2.224556E+06 -3.067538E+05  1.212127E+03 -8.378571E+05 -4.521095E-10 -2.858862E-10
         6  13 -2.252331E+06 -3.243031E+05 -2.141419E+04 -8.430379E+05 -8.457933E-11 -1.163306E-10
         6  14 -2.250458E+06 -3.149897E+05 -1.043918E+04 -8.445844E+05  2.021352E-09 -6.536957E-11
         6  15 -2.251340E+06 -3.173595E+05 -6.223768E+03 -8.456362E+05  1.737286E-09 -4.227699E-10
         6  16 -2.277595E+06 -3.329870E+05 -2.817415E+04 -8.490155E+05 -1.760103E-10 -6.830483E-10
         6  17 -2.276481E+06 -3.246336E+05 -1.753439E+04 -8.514626E+05 -2.811430E-10  1.279689E-10
         6  18 -2.278124E+06 -3.279651E+05 -1.365974E+04 -8.534150E+05 -2.549344E-10 -8.601021E-10
         6  19 -2.227067E+06 -3.156192E+05 -1.465382E+04 -8.370600E+05  1.479616E+04  5.907142E+03
         6  20 -2.224435E+06 -3.053457E+05 -3.343856E+03 -8.377059E+05  9.362484E+03  3.943995E+03
         6  21 -2.224556E+06 -3.067538E+05  1.212163E+03 -8.378571E+05  3.941751E+03  1.946497E+03
         6  22 -2.252331E+06 -3.243030E+05 -2.141371E+04 -8.430378E+05  1.481238E+04  5.913254E+03
         6  23 -2.250458E+06 -3.149896E+05 -1.043899E+04 -8.445844E+05  9.371998E+03  3.947569E+03
         6  24 -2.251340E+06 -3.173595E+05 -6.223732E+03 -8.456362E+05  3.944564E+03  1.947550E+03
         6  25 -2.277594E+06 -3.329869E+05 -2.817367E+04 -8.490154E+05  1.482861E+04  5.919366E+03
         6  26 -2.276481E+06 -3.246336E+05 -1.753419E+04 -8.514626E+05  9.381511E+03  3.951142E+03
         6  27 -2.278124E+06 -3.279651E+05 -1.365970E+04 -8.534150E+05  3.947378E+03  1.948603E+03
         7   1 -2.219729E+06 -3.064106E+05  3.639682E+03 -8.362420E+05 -2.998084E+03 -1.615844E+03
         7   2 -2.219230E+06 -3.047137E+05  5.814780E+03 -8.361433E+05 -1.521494E+03 -1.100632E+03
         7   3 -2.219064E+06 -3.051327E+05  6.453286E+03 -8.362049E+05 -6.046302E+01 -5.438733E+02
         7   4 -2.251220E+06 -3.181878E+05 -4.971701E+03 -8.446746E+05 -3.009009E+03 -1.619945E+03
         7   5 -2.250991E+06 -3.166960E+05 -2.886790E+03 -8.447564E+05 -1.524117E+03 -1.101618E+03
         7   6 -2.251096E+06 -3.173218E+05 -2.345129E+03 -8.449985E+05 -5.478195E+01 -5.417428E+02
         7   7 -2.282711E+06 -3.299649E+05 -1.358316E+04 -8.531068E+05 -3.019932E+03 -1.624047E+03
         7   8 -2.282751E+06 -3.286782E+05 -1.158845E+04 -8.533691E+05 -1.526739E+03 -1.102604E+03
         7   9 -2.283127E+06 -3.295109E+05 -1.114364E+04 -8.537918E+05 -4.910119E+01 -5.396125E+02
         7  10 -2.219729E+06 -3.064106E+05  3.639660E+03 -8.362420E+05  6.532555E-10 -1.003959E-09
         7  11 -2.219230E+06 -3.047137E+05  5.814773E+03 -8.361433E+05  1.559113E-09 -9.172191E-10
         7  12 -2.219064E+06 -3.051327E+05  6.453286E+03 -8.362049E+05 -6.146211E-10 -3.167922E-10
         7  13 -2.251220E+06 -3.181878E+05 -4.971723E+03 -8.446746E+05  1.253922E-10 -6.161714E-10
         7  14 -2.250991E+06 -3.166960E+05 -2.886797E+03 -8.447564E+05  8.537325E-10 -7.762085E-10
         7  15 -2.251096E+06 -3.173218E+05 -2.345129E+03 -8.449985E+05 -3.803555E-10  2.534882E-10
         7  16 -2.282711E+06 -3.299649E+05 -1.358318E+04 -8.531068E+05  1.180102E-09 -1.410140E-09
         7  17 -2.282751E+06 -3.286782E+05 -1.158845E+04 -8.533691E+05 -7.593005E-10 -3.315607E-10
         7  18 -2.283127E+06 -3.295109E+05 -1.114364E+04 -8.537918E+05 -1.104779E-10  6.741149E-10
         7  19 -2.219729E+06 -3.064106E+05  3.639682E+03 -8.362420E+05  2.998084E+03  1.615844E+03
         7  20 -2.219230E+06 -3.047137E+05  5.814780E+03 -8.361433E+05  1.521494E+03  1.100632E+03
         7  21 -2.219064E+06 -3.051327E+05  6.453286E+03 -8.362049E+05  6.046302E+01  5.438733E+02
         7  22 -2.251220E+06 -3.181878E+05 -4.971701E+03 -8.446746E+05  3.009009E+03  1.619945E+03
         7  23 -2.250991E+06 -3.166960E+05 -2.886790E+03 -8.447564E+05  1.524117E+03  1.101618E+03
         7  24 -2.251096E+06 -3.173218E+05 -2.345129E+03 -8.449985E+05  5.478195E+01  5.417428E+02
         7  25 -2.282711E+06 -3.299649E+05 -1.358316E+04 -8.531068E+05  3.019932E+03  1.624047E+03
         7  26 -2.282751E+06 -3.286782E+05 -1.158845E+04 -8.533691E+05  1.526739E+03  1.102604E+03
         7  27 -2.283127E+06 -3.295109E+05 -1.114364E+04 -8.537918E+05  4.910119E+01  5.396125E+02
         8   1 -2.220021E+06 -3.052686E+05  6.247259E+03 -8.362230E+05  3.347997E+02 -3.913032E+02
         8   2 -2.219967E+06 -3.054603E+05  5.590852E+03 -8.368162E+05  1.761924E+03  1.495504E+02
         8   3 -2.221532E+06 -3.064149E+05  3.436349E+03 -8.360862E+05  3.173913E+03  7.307203E+02
         8   4 -2.251384E+06 -3.170374E+05 -2.333415E+03 -8.446628E+05  3.316434E+02 -3.924898E+02
         8   5 -2.250633E+06 -3.170665E+05 -2.818097E+03 -8.451704E+05  1.766827E+03  1.513892E+02
         8   6 -2.251502E+06 -3.178602E+05 -4.807333E+03 -8.443548E+05  3.186878E+03  7.355861E+02
         8   7 -2.282747E+06 -3.288060E+05 -1.091417E+04 -8.531023E+05  3.284873E+02 -3.936762E+02
         8   8 -2.281298E+06 -3.286726E+05 -1.122713E+04 -8.535243E+05  1.771730E+03  1.532278E+02
         8   9 -2.281472E+06 -3.293054E+05 -1.305111E+04 -8.526229E+05  3.199842E+03  7.404516E+02
         8  10 -2.220021E+06 -3.052686E+05  6.247258E+03 -8.362230E+05 -4.218803E-10 -6.065165E-10
         8  11 -2.219967E+06 -3.054603E+05  5.590846E+03 -8.368162E+05  7.873315E-10 -2.635000E-10
         8  12 -2.221532E+06 -3.064149E+05  3.436329E+03 -8.360862E+05 -3.340374E-10  2.582449E-10
         8  13 -2.251384E+06 -3.170374E+05 -2.333416E+03 -8.446628E+05 -6.203525E-10  2.251062E-10
         8  14 -2.250633E+06 -3.170665E+05 -2.818103E+03 -8.451704E+05  2.545422E-10 -1.504328E-10
         8  15 -2.251502E+06 -3.178602E+05 -4.807353E+03 -8.443548E+05  5.845384E-10  3.063095E-10
         8  16 -2.282747E+06 -3.288060E+05 -1.091417E+04 -8.531023E+05 -1.674645E-09  1.665485E-10
         8  17 -2.281298E+06 -3.286726E+05 -1.122714E+04 -8.535243E+05  3.282585E-10 -2.435873E-11
         8  18 -2.281472E+06 -3.293054E+05 -1.305113E+04 -8.526230E+05  1.680186E-09  7.419147E-10
         8  19 -2.220021E+06 -3.052686E+05  6.247259E+03 -8.362230E+05 -3.347997E+02  3.913032E+02
         8  20 -2.219967E+06 -3.054603E+05  5.590852E+03 -8.368162E+05 -1.761924E+03 -1.495504E+02
         8  21 -2.221532E+06 -3.064149E+05  3.436349E+03 -8.360862E+05 -3.173913E+03 -7.307203E+02
         8  22 -2.251384E+06 -3.170374E+05 -2.333415E+03 -8.446628E+05 -3.316434E+02  3.924898E+02
         8  23 -2.250633E+06 -3.170665E+05 -2.818097E+03 -8.451704E+05 -1.766827E+03 -1.513892E+02
         8  24 -2.251502E+06 -3.178602E+05 -4.807333E+03 -8.443548E+05 -3.186878E+03 -7.355861E+02
         8  25 -2.282747E+06 -3.288060E+05 -1.091417E+04 -8.531023E+05 -3.284873E+02  3.936762E+02
         8  26 -2.281298E+06 -3.286726E+05 -1.122713E+04 -8.535243E+05 -1.771730E+03 -1.532278E+02
         8  27 -2.281472E+06 -3.293054E+05 -1.305111E+04 -8.526229E+05 -3.199842E+03 -7.404516E+02
         9   1 -2.227503E+06 -3.077095E+05  6.477710E+02 -8.384741E+05  4.066681E+03  1.097916E+03
         9   2 -2.226792E+06 -3.073184E+05 -3.801951E+03 -8.393908E+05  9.261171E+03  3.097791E+03
         9   3 -2.232351E+06 -3.145586E+05 -1.475775E+04 -8.356958E+05  1.444528E+04  5.125054E+03
         9   4 -2.252133E+06 -3.165487E+05 -6.007122E+03 -8.446888E+05  4.072513E+03  1.100109E+03
         9   5 -2.249476E+06 -3.160719E+05 -1.005557E+04 -8.457434E+05  9.272350E+03  3.101985E+03
         9   6 -2.253089E+06 -3.232276E+05 -2.061451E+04 -8.421860E+05  1.446182E+04  5.131242E+03
         9   7 -2.276763E+06 -3.253878E+05 -1.266207E+04 -8.509034E+05  4.078345E+03  1.102301E+03
         9   8 -2.272158E+06 -3.248253E+05 -1.630923E+04 -8.520957E+05  9.283528E+03  3.106178E+03
         9   9 -2.273826E+06 -3.318966E+05 -2.647130E+04 -8.486761E+05  1.447836E+04  5.137429E+03
         9  10 -2.227503E+06 -3.077095E+05  6.477375E+02 -8.384741E+05  4.959934E-10  5.948698E-10
         9  11 -2.226792E+06 -3.073184E+05 -3.802131E+03 -8.393908E+05  9.496710E-10 -6.063516E-10
         9  12 -2.232351E+06 -3.145587E+05 -1.475819E+04 -8.356958E+05 -1.589754E-10 -8.337779E-10
         9  13 -2.252133E+06 -3.165487E+05 -6.007156E+03 -8.446889E+05  5.310960E-10  3.820309E-10
         9  14 -2.249476E+06 -3.160719E+05 -1.005575E+04 -8.457434E+05  6.673392E-10 -3.461739E-10
         9  15 -2.253089E+06 -3.232277E+05 -2.061495E+04 -8.421861E+05 -3.370375E-10 -3.626724E-10
         9  16 -2.276763E+06 -3.253878E+05 -1.266210E+04 -8.509034E+05 -8.093143E-11  8.286816E-10
         9  17 -2.272159E+06 -3.248253E+05 -1.630941E+04 -8.520957E+05 -8.519659E-10 -1.692413E-10
         9  18 -2.273826E+06 -3.318966E+05 -2.647175E+04 -8.486761E+05  3.636070E-12  8.085538E-11
         9  19 -2.227503E+06 -3.077095E+05  6.477710E+02 -8.384741E+05 -4.066681E+03 -1.097916E+03
         9  20 -2.226792E+06 -3.073184E+05 -3.801951E+03 -8.393908E+05 -9.261171E+03 -3.097791E+03
         9  21 -2.232351E+06 -3.145586E+05 -1.475775E+04 -8.356958E+05 -1.444528E+04 -5.125054E+03
         9  22 -2.252133E+06 -3.165487E+05 -6.007122E+03 -8.446888E+05 -4.072513E+03 -1.100109E+03
         9  23 -2.249476E+06 -3.160719E+05 -1.005557E+04 -8.457434E+05 -9.272350E+03 -3.101985E+03
         9  24 -2.253089E+06 -3.232276E+05 -2.061451E+04 -8.421860E+05 -1.446182E+04 -5.131242E+03
         9  25 -2.276763E+06 -3.253878E+05 -1.266207E+04 -8.509034E+05 -4.078345E+03 -1.102301E+03
         9  26 -2.272158E+06 -3.248253E+05 -1.630923E+04 -8.520957E+05 -9.283528E+03 -3.106178E+03
         9  27 -2.273826E+06 -3.318966E+05 -2.647130E+04 -8.486761E+05 -1.447836E+04 -5.137429E+03
        10   1 -2.241391E+06 -3.132941E+05 -2.256027E+04 -8.456958E+05  1.827425E+04  6.618137E+03
        10   2 -2.234870E+06 -3.023059E+05 -4.022967E+04 -8.436050E+05  4.108792E+04  1.527149E+04
        10   3 -2.258633E+06 -3.541690E+05 -9.285586E+04 -8.218520E+05  6.390388E+04  2.391899E+04
        10   4 -2.255593E+06 -3.155257E+05 -2.582341E+04 -8.463377E+05  1.828946E+04  6.623964E+03
        10   5 -2.243736E+06 -3.071332E+05 -4.295405E+04 -8.475318E+05  4.110159E+04  1.527650E+04
        10   6 -2.262164E+06 -3.615925E+05 -9.504057E+04 -8.290635E+05  6.391622E+04  2.392283E+04
        10   7 -2.269794E+06 -3.177573E+05 -2.908656E+04 -8.469796E+05  1.830466E+04  6.629790E+03
        10   8 -2.252602E+06 -3.119606E+05 -4.567844E+04 -8.514585E+05  4.111526E+04  1.528151E+04
        10   9 -2.265694E+06 -3.690157E+05 -9.722527E+04 -8.362750E+05  6.392857E+04  2.392668E+04
        10  10 -2.241391E+06 -3.132942E+05 -2.256098E+04 -8.456959E+05  6.419350E-10  7.943671E-11
        10  11 -2.234872E+06 -3.023066E+05 -4.023329E+04 -8.436055E+05 -9.412337E-11  6.103460E-10
        10  12 -2.258638E+06 -3.541707E+05 -9.286464E+04 -8.218532E+05 -5.546919E-10 -3.950915E-12
        10  13 -2.255593E+06 -3.155258E+05 -2.582412E+04 -8.463378E+05 -7.326526E-10 -1.602010E-10
        10  14 -2.243738E+06 -3.071340E+05 -4.295768E+04 -8.475323E+05 -1.594717E-09  3.144564E-10
        10  15 -2.262168E+06 -3.615942E+05 -9.504936E+04 -8.290648E+05 -3.188687E-10  9.616467E-11
        10  16 -2.269794E+06 -3.177574E+05 -2.908728E+04 -8.469797E+05  8.781458E-11 -6.851420E-11
        10  17 -2.252604E+06 -3.119613E+05 -4.568207E+04 -8.514590E+05 -1.100933E-09  3.445526E-10
        10  18 -2.265698E+06 -3.690175E+05 -9.723407E+04 -8.362762E+05 -1.496147E-09 -9.445789E-11
        10  19 -2.241391E+06 -3.132941E+05 -2.256027E+04 -8.456958E+05 -1.827425E+04 -6.618137E+03
        10  20 -2.234870E+06 -3.023059E+05 -4.022967E+04 -8.436050E+05 -4.108792E+04 -1.527149E+04
        10  21 -2.258633E+06 -3.541690E+05 -9.285586E+04 -8.218520E+05 -6.390388E+04 -2.391899E+04
        10  22 -2.255593E+06 -3.155257E+05 -2.582341E+04 -8.463377E+05 -1.828946E+04 -6.623964E+03
        10  23 -2.243736E+06 -3.071332E+05 -4.295405E+04 -8.475318E+05 -4.110159E+04 -1.527650E+04
        10  24 -2.262164E+06 -3.615925E+05 -9.504057E+04 -8.290635E+05 -6.391622E+04 -2.392283E+04
        10  25 -2.269794E+06 -3.177573E+05 -2.908656E+04 -8.469796E+05 -1.830466E+04 -6.629790E+03
        10  26 -2.252602E+06 -3.119606E+05 -4.567844E+04 -8.514585E+05 -4.111526E+04 -1.528151E+04
        10  27 -2.265694E+06 -3.690157E+05 -9.722527E+04 -8.362750E+05 -6.392857E+04 -2.392668E+04
        11   1 -2.264750E+06 -3.257988E+05 -1.162668E+05 -8.766469E+05  8.125909E+04  3.051992E+04
        11   2 -2.220629E+06 -2.389838E+05 -1.842530E+05 -8.509281E+05  1.823280E+05  6.860449E+04
        11   3 -2.360439E+06 -5.956193E+05 -4.499615E+05 -7.061373E+05  2.834530E+05  1.065476E+05
        11   4 -2.276897E+06 -3.093340E+05 -1.154008E+05 -8.583274E+05  8.129327E+04  3.053625E+04
        11   5 -2.207348E+06 -2.451278E+05 -1.828362E+05 -8.587807E+05  1.823347E+05  6.860285E+04
        11   6 -2.321727E+06 -6.243654E+05 -4.479689E+05 -7.401596E+05  2.834367E+05  1.065165E+05
        11   7 -2.289042E+06 -2.928672E+05 -1.145344E+05 -8.400080E+05  8.132746E+04  3.055257E+04
        11   8 -2.194066E+06 -2.512714E+05 -1.814192E+05 -8.666335E+05  1.823413E+05  6.860121E+04
        11   9 -2.283009E+06 -6.531036E+05 -4.459751E+05 -7.741835E+05  2.834204E+05  1.064854E+05
        11  10 -2.264757E+06 -3.258016E+05 -1.162811E+05 -8.766489E+05  3.667886E-10 -5.918547E-11
        11  11 -2.220666E+06 -2.389979E+05 -1.843246E+05 -8.509382E+05  1.447774E-10  4.882697E-10
        11  12 -2.360529E+06 -5.956532E+05 -4.501345E+05 -7.061617E+05  1.093796E-09 -2.298071E-11
        11  13 -2.276904E+06 -3.093368E+05 -1.154150E+05 -8.583294E+05 -8.656574E-10  6.185993E-11
        11  14 -2.207385E+06 -2.451419E+05 -1.829078E+05 -8.587908E+05  1.003544E-09  4.456785E-10
        11  15 -2.321816E+06 -6.243993E+05 -4.481419E+05 -7.401840E+05  7.281214E-10  9.038568E-11
        11  16 -2.289050E+06 -2.928700E+05 -1.145487E+05 -8.400100E+05 -9.037022E-10  3.435484E-10
        11  17 -2.194103E+06 -2.512854E+05 -1.814908E+05 -8.666436E+05  4.232426E-10  7.006007E-10
        11  18 -2.283098E+06 -6.531375E+05 -4.461480E+05 -7.742079E+05 -1.894609E-10  1.651044E-11
        11  19 -2.264750E+06 -3.257988E+05 -1.162668E+05 -8.766469E+05 -8.125909E+04 -3.051992E+04
        11  20 -2.220629E+06 -2.389838E+05 -1.842530E+05 -8.509281E+05 -1.823280E+05 -6.860449E+04
        11  21 -2.360439E+06 -5.956193E+05 -4.499615E+05 -7.061373E+05 -2.834530E+05 -1.065476E+05
        11  22 -2.276897E+06 -3.093340E+05 -1.154008E+05 -8.583274E+05 -8.129327E+04 -3.053625E+04
        11  23 -2.207348E+06 -2.451278E+05 -1.828362E+05 -8.587807E+05 -1.823347E+05 -6.860285E+04
        11  24 -2.321727E+06 -6.243654E+05 -4.479689E+05 -7.401596E+05 -2.834367E+05 -1.065165E+05
        11  25 -2.289042E+06 -2.928672E+05 -1.145344E+05 -8.400080E+05 -8.132746E+04 -3.055257E+04
        11  26 -2.194066E+06 -2.512714E+05 -1.814192E+05 -8.666335E+05 -1.823413E+05 -6.860121E+04
        11  27 -2.283009E+06 -6.531036E+05 -4.459751E+05 -7.741835E+05 -2.834204E+05 -1.064854E+05
        12   1 -1.306742E+04 -2.848717E+05 -1.204410E+04  3.825554E+02 -7.821702E+01 -1.100773E+02
        12   2 -1.332172E+04 -2.856186E+05 -1.198552E+04 -5.246109E+02 -9.158213E+01 -7.179477E+02
        12   3 -1.239503E+04 -2.846398E+05 -1.096542E+04  3.424244E+02 -5.206738E+01 -1.325892E+03
        12   4  8.802614E+01 -2.322641E+05  1.110364E+03  3.945586E+02 -7.821643E+01 -1.091314E+02
        12   5 -1.943962E+02 -2.331235E+05  1.140637E+03 -4.930497E+02 -9.158196E+01 -7.183156E+02