
 stresses (elem, integ.pnt.,sxx,syy,szz,sxy,sxz,syz) for set ELALL and time  0.1000000E+01

         1   1  3.417891E+06  1.860847E+05  2.225554E+05  9.153488E+04  1.509640E+05  2.214173E+01
         1   2  3.392991E+06  2.625438E+03  1.039408E+05  3.272904E+04  9.603513E+04  5.036433E+00
         1   3  3.418202E+06 -8.636724E+03  6.400126E+04 -2.607428E+04  4.110491E+04 -1.717304E+00
         1   4  3.417882E+06  1.860691E+05  2.225532E+05 -4.433582E-09  1.509640E+05  8.096498E-11
         1   5  3.392990E+06  2.623436E+03  1.039405E+05 -1.576046E-09  9.603513E+04  1.443877E-10
         1   6  3.418201E+06 -8.637995E+03  6.400108E+04  8.178596E-10  4.110491E+04 -1.556223E-11
         1   7  3.417891E+06  1.860847E+05  2.225554E+05 -9.153488E+04  1.509640E+05 -2.214173E+01
         1   8  3.392991E+06  2.625438E+03  1.039408E+05 -3.272904E+04  9.603513E+04 -5.036433E+00
         1   9  3.418202E+06 -8.636724E+03  6.400126E+04  2.607428E+04  4.110491E+04  1.717304E+00
         1  10  3.417867E+06  1.860787E+05  2.225128E+05  9.153488E+04 -2.564468E-10 -1.642348E-10
         1  11  3.392981E+06  2.622978E+03  1.039235E+05  3.272904E+04 -1.298088E-09 -8.357239E-11
         1  12  3.418200E+06 -8.637175E+03  6.399810E+04 -2.607428E+04  6.265275E-10 -1.685552E-10
         1  13  3.417858E+06  1.860630E+05  2.225106E+05  9.758753E-10  1.617849E-09  5.421356E-11
         1  14  3.392980E+06  2.620976E+03  1.039232E+05  5.376597E-09  1.097558E-09 -3.072280E-11
         1  15  3.418199E+06 -8.638445E+03  6.399792E+04  5.245059E-09 -4.377381E-10 -4.328388E-10
         1  16  3.417867E+06  1.860787E+05  2.225128E+05 -9.153488E+04  3.879843E-10 -3.746029E-11
         1  17  3.392981E+06  2.622978E+03  1.039235E+05 -3.272904E+04  1.146620E-09  2.763149E-11
         1  18  3.418200E+06 -8.637175E+03  6.399810E+04  2.607428E+04 -1.696678E-09 -4.652301E-10
         1  19  3.417891E+06  1.860847E+05  2.225554E+05  9.153488E+04 -1.509640E+05 -2.214173E+01
         1  20  3.392991E+06  2.625438E+03  1.039408E+05  3.272904E+04 -9.603513E+04 -5.036433E+00
         1  21  3.418202E+06 -8.636724E+03  6.400126E+04 -2.607428E+04 -4.110491E+04  1.717304E+00
         1  22  3.417882E+06  1.860691E+05  2.225532E+05 -2.238595E-09 -1.509640E+05  5.038097E-11
         1  23  3.392990E+06  2.623436E+03  1.039405E+05  4.778352E-09 -9.603513E+04 -1.291131E-10
         1  24  3.418201E+06 -8.637995E+03  6.400108E+04 -3.157403E-10 -4.110491E+04 -8.588724E-10
         1  25  3.417891E+06  1.860847E+05  2.225554E+05 -9.153488E+04 -1.509640E+05  2.214173E+01
         1  26  3.392991E+06  2.625438E+03  1.039408E+05 -3.272904E+04 -9.603513E+04  5.036433E+00
         1  27  3.418202E+06 -8.636724E+03  6.400126E+04  2.607428E+04 -4.110491E+04 -1.717304E+00
         2   1  3.408113E+06  9.393256E+03  5.336508E+04  3.665495E+03  3.174230E+04  1.864315E-01
         2   2  3.405652E+06 -3.497254E+02  3.690589E+04  1.118460E+03  1.328270E+04  2.380433E-02
         2   3  3.408138E+06  1.452502E+02  3.497653E+04 -1.428582E+03 -5.176753E+03  1.184977E-02
         2   4  3.408113E+06  9.393231E+03  5.336507E+04  2.474716E-09  3.174230E+04 -2.275000E-10
         2   5  3.405652E+06 -3.497278E+02  3.690589E+04 -1.240212E-09  1.328270E+04 -4.369555E-10
         2   6  3.408138E+06  1.452464E+02  3.497653E+04 -7.453154E-09 -5.176753E+03 -8.838424E-11
         2   7  3.408113E+06  9.393256E+03  5.336508E+04 -3.665495E+03  3.174230E+04 -1.864315E-01
         2   8  3.405652E+06 -3.497254E+02  3.690589E+04 -1.118460E+03  1.328270E+04 -2.380433E-02
         2   9  3.408138E+06  1.452502E+02  3.497653E+04  1.428582E+03 -5.176753E+03 -1.184977E-02
         2  10  3.408112E+06  9.392988E+03  5.336319E+04  3.665495E+03 -2.458018E-10 -1.875921E-10
         2  11  3.405652E+06 -3.497725E+02  3.690556E+04  1.118460E+03 -2.540788E-10  7.173880E-12
         2  12  3.408138E+06  1.452431E+02  3.497648E+04 -1.428582E+03 -2.060742E-10 -6.146272E-11
         2  13  3.408112E+06  9.392962E+03  5.336319E+04  5.773301E-09 -6.834451E-10 -4.189235E-10
         2  14  3.405652E+06 -3.497748E+02  3.690556E+04 -1.189587E-09 -7.309948E-10 -3.489557E-11
         2  15  3.408138E+06  1.452393E+02  3.497648E+04 -1.976799E-09  1.689536E-09  9.783230E-11
         2  16  3.408112E+06  9.392988E+03  5.336319E+04 -3.665495E+03 -2.600575E-10 -7.752545E-10
         2  17  3.405652E+06 -3.497725E+02  3.690556E+04 -1.118460E+03 -1.083270E-09 -5.616684E-11
         2  18  3.408138E+06  1.452431E+02  3.497648E+04  1.428582E+03  7.546113E-10  2.593509E-10
         2  19  3.408113E+06  9.393256E+03  5.336508E+04  3.665495E+03 -3.174230E+04 -1.864315E-01
         2  20  3.405652E+06 -3.497254E+02  3.690589E+04  1.118460E+03 -1.328270E+04 -2.380433E-02
         2  21  3.408138E+06  1.452502E+02  3.497653E+04 -1.428582E+03  5.176753E+03 -1.184977E-02
         2  22  3.408113E+06  9.393231E+03  5.336507E+04 -5.285564E-10 -3.174230E+04 -5.530574E-10
         2  23  3.405652E+06 -3.497278E+02  3.690589E+04 -1.109443E-09 -1.328270E+04  5.671911E-10
         2  24  3.408138E+06  1.452464E+02  3.497653E+04 -7.208855E-09  5.176753E+03  3.235120E-10
         2  25  3.408113E+06  9.393256E+03  5.336508E+04 -3.665495E+03 -3.174230E+04  1.864315E-01
         2  26  3.405652E+06 -3.497254E+02  3.690589E+04 -1.118460E+03 -1.328270E+04  2.380433E-02
         2  27  3.408138E+06  1.452502E+02  3.497653E+04  1.428582E+03  5.176753E+03  1.184977E-02
         3   1  3.408758E+06 -6.044237E+02  3.778428E+04  3.107632E+03 -1.160688E+04 -5.779523E-02
         3   2  3.404861E+06 -4.269724E+02  5.245754E+04 -1.513912E+03 -3.790085E+04  9.193898E-02
         3   3  3.408697E+06  1.708198E+04  8.851591E+04 -6.135332E+03 -6.419507E+04  6.310865E-01
         3   4  3.408758E+06 -6.044418E+02  3.778428E+04 -1.556376E-09 -1.160688E+04  9.072865E-11
         3   5  3.404861E+06 -4.269767E+02  5.245754E+04  1.198748E-09 -3.790085E+04  1.679485E-10
         3   6  3.408697E+06  1.708191E+04  8.851590E+04 -2.769429E-09 -6.419507E+04  1.274925E-10
         3   7  3.408758E+06 -6.044237E+02  3.778428E+04 -3.107632E+03 -1.160688E+04  5.779524E-02
         3   8  3.404861E+06 -4.269724E+02  5.245754E+04  1.513912E+03 -3.790085E+04 -9.193898E-02
         3   9  3.408697E+06  1.708198E+04  8.851591E+04  6.135332E+03 -6.419507E+04 -6.310865E-01
         3  10  3.408758E+06 -6.044597E+02  3.778403E+04  3.107632E+03  7.124204E-10 -9.662975E-11
         3  11  3.404859E+06 -4.273555E+02  5.245485E+04 -1.513912E+03  1.103815E-09 -1.659805E-10
         3  12  3.408693E+06  1.708088E+04  8.850821E+04 -6.135332E+03  2.080736E-10  2.501352E-10
         3  13  3.408758E+06 -6.044777E+02  3.778403E+04  1.670487E-09  1.001868E-09  4.432070E-11
         3  14  3.404859E+06 -4.273598E+02  5.245485E+04  6.932878E-10  1.651489E-09  2.358565E-11
         3  15  3.408693E+06  1.708081E+04  8.850820E+04 -2.693492E-09 -6.742544E-10  1.499551E-10
         3  16  3.408758E+06 -6.044597E+02  3.778403E+04 -3.107632E+03  6.005713E-10  1.290252E-10
         3  17  3.404859E+06 -4.273555E+02  5.245485E+04  1.513912E+03 -7.215473E-10  2.306181E-10
         3  18  3.408693E+06  1.708088E+04  8.850821E+04  6.135332E+03  3.143021E-10 -2.919040E-11
         3  19  3.408758E+06 -6.044237E+02  3.778428E+04  3.107632E+03  1.160688E+04  5.779523E-02
         3  20  3.404861E+06 -4.269724E+02  5.245754E+04 -1.513912E+03  3.790085E+04 -9.193898E-02
         3  21  3.408697E+06  1.708198E+04  8.851591E+04 -6.135332E+03  6.419507E+04 -6.310865E-01
         3  22  3.408758E+06 -6.044418E+02  3.778428E+04 -2.702302E-09  1.160688E+04 -1.195159E-11
         3  23  3.404861E+06 -4.269767E+02  5.245754E+04 -3.072768E-09  3.790085E+04 -1.584901E-10
         3  24  3.408697E+06  1.708191E+04  8.851590E+04 -4.858776E-09  6.419507E+04  1.005327E-10
         3  25  3.408758E+06 -6.044237E+02  3.778428E+04 -3.107632E+03  1.160688E+04 -5.779523E-02
         3  26  3.404861E+06 -4.269724E+02  5.245754E+04  1.513912E+03  3.790085E+04  9.193898E-02
         3  27  3.408697E+06  1.708198E+04  8.851591E+04  6.135332E+03  6.419507E+04  6.310865E-01
         4   1  3.427156E+06 -1.558255E+04  1.098688E+05  4.739172E+04 -7.987671E+04 -6.065395E+00
         4   2  3.381694E+06  4.791433E+03  1.851553E+05 -5.892210E+04 -1.777932E+05  1.678660E+01
         4   3  3.426608E+06  3.362891E+05  4.017418E+05 -1.652483E+05 -2.757095E+05  7.300358E+01
         4   4  3.427154E+06 -1.558675E+04  1.098682E+05 -3.778132E-09 -7.987671E+04  2.026994E-10
         4   5  3.381690E+06  4.784944E+03  1.851544E+05  2.158699E-09 -1.777932E+05  3.277279E-10
         4   6  3.426579E+06  3.362381E+05  4.017345E+05 -1.445802E-09 -2.757095E+05  2.568834E-10
         4   7  3.427156E+06 -1.558255E+04  1.098688E+05 -4.739172E+04 -7.987671E+04  6.065395E+00
         4   8  3.381694E+06  4.791433E+03  1.851553E+05  5.892210E+04 -1.777932E+05 -1.678660E+01
         4   9  3.426608E+06  3.362891E+05  4.017418E+05  1.652483E+05 -2.757095E+05 -7.300358E+01
         4  10  3.427149E+06 -1.558425E+04  1.098569E+05  4.739172E+04 -7.036037E-11  3.106812E-10
         4  11  3.381660E+06  4.783005E+03  1.850962E+05 -5.892209E+04  2.999579E-10  1.454288E-10
         4  12  3.426527E+06  3.362689E+05  4.015997E+05 -1.652483E+05  2.186175E-10  7.586756E-11
         4  13  3.427147E+06 -1.558845E+04  1.098563E+05 -2.665976E-09  6.227336E-10  2.780891E-10
         4  14  3.381656E+06  4.776515E+03  1.850953E+05  4.948045E-10 -1.229556E-09  2.886283E-10
         4  15  3.426498E+06  3.362178E+05  4.015924E+05  9.766632E-10  5.381526E-10  9.038166E-11
         4  16  3.427149E+06 -1.558425E+04  1.098569E+05 -4.739172E+04 -2.167074E-10  7.809176E-11
         4  17  3.381660E+06  4.783005E+03  1.850962E+05  5.892209E+04 -8.663173E-10  4.228720E-10
         4  18  3.426527E+06  3.362689E+05  4.015997E+05  1.652483E+05 -1.015620E-09  1.727286E-10
         4  19  3.427156E+06 -1.558255E+04  1.098688E+05  4.739172E+04  7.987671E+04  6.065395E+00
         4  20  3.381694E+06  4.791433E+03  1.851553E+05 -5.892210E+04  1.777932E+05 -1.678660E+01
         4  21  3.426608E+06  3.362891E+05  4.017418E+05 -1.652483E+05  2.757095E+05 -7.300358E+01
         4  22  3.427154E+06 -1.558675E+04  1.098682E+05 -4.810090E-09  7.987671E+04  3.695587E-10
         4  23  3.381690E+06  4.784944E+03  1.851544E+05 -1.131144E-09  1.777932E+05  2.126452E-10
         4  24  3.426579E+06  3.362381E+05  4.017345E+05 -1.774634E-09  2.757095E+05 -9.038980E-11
         4  25  3.427156E+06 -1.558255E+04  1.098688E+05 -4.739172E+04  7.987671E+04 -6.065395E+00
         4  26  3.381694E+06  4.791433E+03  1.851553E+05  5.892210E+04  1.777932E+05  1.678660E+01
         4  27  3.426608E+06  3.362891E+05  4.017418E+05  1.652483E+05  2.757095E+05  7.300358E+01
         5   1 -1.159379E+06 -2.824971E+06 -1.195172E+06  6.383782E+05 -4.182977E+04 -3.634885E+05
         5   2 -6.722330E+05 -2.028658E+06 -7.653101E+05  4.003722E+05 -1.217066E+05 -1.879655E+05
         5   3 -4.689749E+05 -1.324363E+06 -5.208038E+05  4.535695E+05 -1.051806E+05 -1.229132E+04
         5   4 -2.916014E+05  6.631171E+05 -3.478087E+05  4.990491E+05 -4.159249E+04 -2.414773E+05
         5   5 -4.438280E+03  7.017070E+05 -1.579607E+05  3.531931E+05 -1.215957E+05 -1.577280E+05
         5   6  1.553731E+04  6.642133E+05 -8.907253E+04  4.985865E+05 -1.053332E+05 -7.405679E+04
         5   7  5.753642E+05  4.162412E+06  4.987427E+05  3.589248E+05 -4.141115E+04 -1.187773E+05
         5   8  6.628611E+05  3.439044E+06  4.489286E+05  3.057987E+05 -1.214896E+05 -1.273575E+05
         5   9  4.997967E+05  2.656513E+06  3.424381E+05  5.437459E+05 -1.054945E+05 -1.360175E+05
         5  10 -1.159416E+06 -2.825114E+06 -1.195425E+06  6.383660E+05 -2.190803E-10 -7.353750E-10
         5  11 -6.722584E+05 -2.028700E+06 -7.654045E+05  4.003537E+05  3.944911E-10 -9.961273E-10
         5  12 -4.689868E+05 -1.324366E+06 -5.208249E+05  4.535684E+05 -9.099043E-10 -5.259303E-10
         5  13 -2.916189E+05  6.630540E+05 -3.479213E+05  4.990410E+05  8.865186E-10  8.833810E-12
         5  14 -4.460819E+03  7.016763E+05 -1.580351E+05  3.531777E+05  1.045547E-09  3.887083E-11
         5  15  1.552393E+04  6.642044E+05 -8.910365E+04  4.985803E+05  5.149690E-10  5.350471E-11
         5  16  5.753586E+05  4.162396E+06  4.987132E+05  3.589208E+05 -1.487202E-09  8.596583E-10
         5  17  6.628410E+05  3.439022E+06  4.488705E+05  3.057863E+05 -2.663609E-10  1.054396E-09
         5  18  4.997798E+05  2.656491E+06  3.423827E+05  5.437344E+05 -1.376679E-09  5.382956E-10
         5  19 -1.159379E+06 -2.824971E+06 -1.195172E+06  6.383782E+05  4.182977E+04  3.634885E+05
         5  20 -6.722330E+05 -2.028658E+06 -7.653101E+05  4.003722E+05  1.217066E+05  1.879655E+05
         5  21 -4.689749E+05 -1.324363E+06 -5.208038E+05  4.535695E+05  1.051806E+05  1.229132E+04
         5  22 -2.916014E+05  6.631171E+05 -3.478087E+05  4.990491E+05  4.159249E+04  2.414773E+05
         5  23 -4.438280E+03  7.017070E+05 -1.579607E+05  3.531931E+05  1.215957E+05  1.577280E+05
         5  24  1.553731E+04  6.642133E+05 -8.907253E+04  4.985865E+05  1.053332E+05  7.405679E+04
         5  25  5.753642E+05  4.162412E+06  4.987427E+05  3.589248E+05  4.141115E+04  1.187773E+05
         5  26  6.628611E+05  3.439044E+06  4.489286E+05  3.057987E+05  1.214896E+05  1.273575E+05
         5  27  4.997967E+05  2.656513E+06  3.424381E+05  5.437459E+05  1.054945E+05  1.360175E+05
         6   1 -3.519482E+05 -7.122987E+05 -3.718981E+05  5.010762E+05 -7.185415E+04 -2.672576E+04
         6   2 -1.545027E+05  3.905369E+04 -1.705196E+05  3.519919E+05 -3.445004E+04 -9.878052E+03
         6   3  3.250625E+04  7.844419E+05  1.679237E+04  4.977191E+05  4.422478E+03  6.954811E+03
         6   4 -1.278998E+04  6.802002E+05 -6.858917E+04  4.995095E+05 -7.195383E+04 -6.192877E+04
         6   5  2.226163E+03  6.834435E+05 -3.098901E+04  3.520800E+05 -3.456667E+04 -4.646811E+04
         6   6  7.100644E+03  6.804709E+05 -6.426513E+03  4.994459E+05  4.286392E+03 -3.104209E+04
         6   7  3.262402E+05  2.074519E+06  2.346080E+05  4.979372E+05 -7.205320E+04 -9.720966E+04
         6   8  1.589283E+05  1.328226E+06  1.085219E+05  3.521678E+05 -3.468325E+04 -8.309561E+04
         6   9 -1.830491E+04  5.765131E+05 -2.964066E+04  5.011723E+05  4.150081E+03 -6.903270E+04
         6  10 -3.519539E+05 -7.123008E+05 -3.719091E+05  5.010746E+05 -9.451357E-11  5.839717E-10
         6  11 -1.545040E+05  3.905326E+04 -1.705220E+05  3.519916E+05  1.245414E-10  7.283953E-10
         6  12  3.250622E+04  7.844419E+05  1.679224E+04  4.977191E+05  1.137684E-09  5.145403E-10
         6  13 -1.279657E+04  6.801947E+05 -6.860609E+04  4.995059E+05  8.224047E-10 -1.358536E-11
         6  14  2.224302E+03  6.834409E+05 -3.099530E+04  3.520787E+05  3.078897E-10 -1.296830E-11
         6  15  7.100366E+03  6.804699E+05 -6.428357E+03  4.994460E+05  1.392667E-09 -3.687408E-11
         6  16  3.262321E+05  2.074508E+06  2.345806E+05  4.979316E+05 -1.410435E-09 -4.314083E-10
         6  17  1.589252E+05  1.328218E+06  1.085067E+05  3.521654E+05 -5.605770E-10 -8.221562E-10
         6  18 -1.830621E+04  5.765080E+05 -2.964964E+04  5.011725E+05  5.994963E-10 -5.430257E-10
         6  19 -3.519482E+05 -7.122987E+05 -3.718981E+05  5.010762E+05  7.185415E+04  2.672576E+04
         6  20 -1.545027E+05  3.905369E+04 -1.705196E+05  3.519919E+05  3.445004E+04  9.878052E+03
         6  21  3.250625E+04  7.844419E+05  1.679237E+04  4.977191E+05 -4.422478E+03 -6.954811E+03
         6  22 -1.278998E+04  6.802002E+05 -6.858917E+04  4.995095E+05  7.195383E+04  6.192877E+04
         6  23  2.226163E+03  6.834435E+05 -3.098901E+04  3.520800E+05  3.456667E+04  4.646811E+04
         6  24  7.100644E+03  6.804709E+05 -6.426513E+03  4.994459E+05 -4.286392E+03  3.104209E+04
         6  25  3.262402E+05  2.074519E+06  2.346080E+05  4.979372E+05  7.205320E+04  9.720966E+04
         6  26  1.589283E+05  1.328226E+06  1.085219E+05  3.521678E+05  3.468325E+04  8.309561E+04
         6  27 -1.830491E+04  5.765131E+05 -2.964066E+04  5.011723E+05 -4.150081E+03  6.903270E+04
         7   1  1.698988E+05  1.385226E+06  1.561927E+05  4.916520E+05  3.530760E+04  2.417618E+04
         7   2  3.555849E+05  2.122190E+06  3.486142E+05  3.659093E+05  6.047006E+04 -5.053156E+04
         7   3  6.094377E+05  2.885462E+06  6.062847E+05  5.323570E+05  2.252321E+04 -1.251906E+05
         7   4 -4.375352E+02  6.851628E+05  3.411404E+03  4.989284E+05  3.511872E+04 -3.059197E+04
         7   5  2.409348E+03  6.771532E+05  2.581948E+04  3.527401E+05  6.049854E+04 -4.453231E+04
         7   6  6.302125E+04  6.844996E+05  7.144219E+04  4.987611E+05  2.270775E+04 -5.833263E+04
         7   7 -1.708046E+05 -1.443594E+04 -1.493881E+05  5.061960E+05  3.492843E+04 -8.529924E+04
         7   8 -3.509074E+05 -7.659433E+05 -2.971064E+05  3.395998E+05  6.052681E+04 -3.854674E+04
         7   9 -4.837447E+05 -1.512046E+06 -4.637334E+05  4.652797E+05  2.288549E+04  8.290053E+03
         7  10  1.698973E+05  1.385225E+06  1.561893E+05  4.916513E+05  5.413597E-10 -7.868816E-10
         7  11  3.555803E+05  2.122186E+06  3.486025E+05  3.659118E+05  6.692329E-13 -4.962022E-11
         7  12  6.094330E+05  2.885445E+06  6.062544E+05  5.323593E+05  7.189301E-10  4.968212E-10
         7  13 -4.391123E+02  6.851614E+05  3.407324E+03  4.989293E+05  1.184884E-09 -9.101944E-11
         7  14  2.404883E+03  6.771501E+05  2.580887E+04  3.527422E+05 -8.138346E-10 -3.324344E-11
         7  15  6.301978E+04  6.844958E+05  7.143483E+04  4.987622E+05  1.822067E-10 -3.866473E-12
         7  16 -1.708079E+05 -1.444409E+04 -1.494041E+05  5.061984E+05  7.270892E-10  6.540087E-10
         7  17 -3.509118E+05 -7.659459E+05 -2.971161E+05  3.396017E+05 -8.680504E-10  1.017474E-10
         7  18 -4.837453E+05 -1.512046E+06 -4.637345E+05  4.652795E+05 -7.147941E-11 -4.744094E-10
         7  19  1.698988E+05  1.385226E+06  1.561927E+05  4.916520E+05 -3.530760E+04 -2.417618E+04
         7  20  3.555849E+05  2.122190E+06  3.486142E+05  3.659093E+05 -6.047006E+04  5.053156E+04
         7  21  6.094377E+05  2.885462E+06  6.062847E+05  5.323570E+05 -2.252321E+04  1.251906E+05
         7  22 -4.375352E+02  6.851628E+05  3.411404E+03  4.989284E+05 -3.511872E+04  3.059197E+04
         7  23  2.409348E+03  6.771532E+05  2.581948E+04  3.527401E+05 -6.049854E+04  4.453231E+04
         7  24  6.302125E+04  6.844996E+05  7.144219E+04  4.987611E+05 -2.270775E+04  5.833263E+04
         7  25 -1.708046E+05 -1.443594E+04 -1.493881E+05  5.061960E+05 -3.492843E+04  8.529924E+04
         7  26 -3.509074E+05 -7.659433E+05 -2.971064E+05  3.395998E+05 -6.052681E+04  3.854674E+04
         7  27 -4.837447E+05 -1.512046E+06 -4.637334E+05  4.652797E+05 -2.288549E+04 -8.290053E+03
         8   1  1.259437E+06  6.076337E+05 -1.045735E+05  1.014720E+06  3.317115E+04  4.036022E+04
         8   2  1.313817E+06  5.906792E+05 -1.266853E+05  1.099098E+06  1.216603E+04  5.708031E+04
         8   3  1.463669E+06  5.991675E+05 -1.203800E+05  1.136374E+06  6.573155E+03  5.324074E+04
         8   4  2.016295E+06  1.058476E+06  1.290047E+05  1.349326E+06  6.314434E+04  6.282294E+04
         8   5  1.946217E+06  1.007523E+06  5.965869E+04  1.400022E+06  2.232523E+04  6.468591E+04
         8   6  1.975824E+06  9.862368E+05  3.583782E+04  1.403625E+06 -3.088298E+03  4.600302E+04
         8   7  2.773756E+06  1.509508E+06  3.625202E+05  1.684345E+06  9.316740E+04  8.531508E+04
         8   8  2.579045E+06  1.424549E+06  2.459585E+05  1.701277E+06  3.249840E+04  7.230103E+04
         8   9  2.488263E+06  1.373478E+06  1.920253E+05  1.671133E+06 -1.276048E+04  3.875653E+04
         8  10  1.259436E+06  6.076317E+05 -1.045786E+05  1.014719E+06 -5.891112E-10 -2.739604E-10
         8  11  1.313816E+06  5.906756E+05 -1.266917E+05  1.099098E+06 -1.774867E-09  2.999710E-10
         8  12  1.463668E+06  5.991644E+05 -1.203854E+05  1.136374E+06 -1.257443E-09  8.776748E-10
         8  13  2.016290E+06  1.058471E+06  1.289898E+05  1.349322E+06  1.091594E-09  1.851851E-10
         8  14  1.946215E+06  1.007519E+06  5.964992E+04  1.400021E+06  6.987881E-10  4.736383E-10
         8  15  1.975823E+06  9.862345E+05  3.583382E+04  1.403625E+06 -3.235509E-11  3.354472E-10
         8  16  2.773745E+06  1.509498E+06  3.624904E+05  1.684339E+06  9.493336E-10  5.679091E-10
         8  17  2.579043E+06  1.424543E+06  2.459468E+05  1.701275E+06 -4.208588E-10  5.155323E-10
         8  18  2.488263E+06  1.373476E+06  1.920222E+05  1.671133E+06  6.981667E-10 -7.336718E-11
         8  19  1.259437E+06  6.076337E+05 -1.045735E+05  1.014720E+06 -3.317115E+04 -4.036022E+04
         8  20  1.313817E+06  5.906792E+05 -1.266853E+05  1.099098E+06 -1.216603E+04 -5.708031E+04
         8  21  1.463669E+06  5.991675E+05 -1.203800E+05  1.136374E+06 -6.573155E+03 -5.324074E+04
         8  22  2.016295E+06  1.058476E+06  1.290047E+05  1.349326E+06 -6.314434E+04 -6.282294E+04
         8  23  1.946217E+06  1.007523E+06  5.965869E+04  1.400022E+06 -2.232523E+04 -6.468591E+04
         8  24  1.975824E+06  9.862368E+05  3.583782E+04  1.403625E+06  3.088298E+03 -4.600302E+04
         8  25  2.773756E+06  1.509508E+06  3.625202E+05  1.684345E+06 -9.316740E+04 -8.531508E+04
         8  26  2.579045E+06  1.424549E+06  2.459585E+05  1.701277E+06 -3.249840E+04 -7.230103E+04
         8  27  2.488263E+06  1.373478E+06  1.920253E+05  1.671133E+06  1.276048E+04 -3.875653E+04
         9   1  1.516959E+06  6.696293E+05 -1.069224E+05  1.168252E+06  2.240929E+02  4.083763E+04
         9   2  1.579771E+06  7.481970E+05 -9.157445E+04  1.219807E+06 -2.924578E+03  3.164649E+04
         9   3  1.691029E+06  7.860812E+05 -6.966998E+04  1.256800E+06 -5.403390E+03  2.155145E+04
         9   4  1.975815E+06  9.908408E+05  2.918660E+04  1.395720E+06 -3.546550E+03  3.801170E+04
         9   5  1.950496E+06  1.009267E+06  1.822493E+04  1.404389E+06 -7.570126E+03  2.816764E+04
         9   6  1.973796E+06  9.871945E+05  1.457011E+04  1.398490E+06 -1.092286E+04  1.742099E+04
         9   7  2.434903E+06  1.312169E+06  1.652738E+05  1.623379E+06 -7.321007E+03  3.518295E+04
         9   8  2.321370E+06  1.270413E+06  1.280092E+05  1.589096E+06 -1.221942E+04  2.468599E+04
         9   9  2.256648E+06  1.188351E+06  9.880043E+04  1.540252E+06 -1.644567E+04  1.328802E+04
         9  10  1.516959E+06  6.696275E+05 -1.069255E+05  1.168252E+06 -4.450628E-11  8.957524E-10
         9  11  1.579771E+06  7.481960E+05 -9.157634E+04  1.219807E+06  7.061036E-10 -4.907024E-10
         9  12  1.691029E+06  7.860806E+05 -6.967091E+04  1.256800E+06  2.453334E-10 -5.670309E-10
         9  13  1.975814E+06  9.908392E+05  2.918386E+04  1.395720E+06  5.204649E-10 -4.815564E-11
         9  14  1.950496E+06  1.009266E+06  1.822333E+04  1.404390E+06  2.836496E-10 -5.585087E-10
         9  15  1.973796E+06  9.871941E+05  1.456931E+04  1.398490E+06 -1.503302E-10 -4.044407E-10
         9  16  2.434903E+06  1.312168E+06  1.652714E+05  1.623379E+06  4.854311E-10 -8.344751E-10
         9  17  2.321370E+06  1.270412E+06  1.280078E+05  1.589096E+06 -3.090908E-10 -5.034408E-10
         9  18  2.256647E+06  1.188350E+06  9.879958E+04  1.540252E+06  2.644004E-10 -2.549789E-10
         9  19  1.516959E+06  6.696293E+05 -1.069224E+05  1.168252E+06 -2.240929E+02 -4.083763E+04
         9  20  1.579771E+06  7.481970E+05 -9.157445E+04  1.219807E+06  2.924578E+03 -3.164649E+04
         9  21  1.691029E+06  7.860812E+05 -6.966998E+04  1.256800E+06  5.403390E+03 -2.155145E+04
         9  22  1.975815E+06  9.908408E+05  2.918660E+04  1.395720E+06  3.546550E+03 -3.801170E+04
         9  23  1.950496E+06  1.009267E+06  1.822493E+04  1.404389E+06  7.570126E+03 -2.816764E+04
         9  24  1.973796E+06  9.871945E+05  1.457011E+04  1.398490E+06  1.092286E+04 -1.742099E+04
         9  25  2.434903E+06  1.312169E+06  1.652738E+05  1.623379E+06  7.321007E+03 -3.518295E+04
         9  26  2.321370E+06  1.270413E+06  1.280092E+05  1.589096E+06  1.221942E+04 -2.468599E+04
         9  27  2.256648E+06  1.188351E+06  9.880043E+04  1.540252E+06  1.644567E+04 -1.328802E+04
        10   1  1.758112E+06  8.357839E+05 -4.896381E+04  1.290812E+06 -5.300084E+03  1.649733E+04
        10   2  1.820947E+06  9.180676E+05 -2.081563E+04  1.339969E+06 -8.188558E+03  5.846634E+03
        10   3  1.929709E+06  9.573419E+05  1.332776E+04  1.376088E+06 -1.107753E+04 -4.808665E+03
        10   4  1.973692E+06  9.875113E+05  1.448096E+04  1.398182E+06 -1.054150E+04  1.257587E+04
        10   5  1.950864E+06  1.009252E+06  1.753858E+04  1.404530E+06 -1.343533E+04  1.921927E+03
        10   6  1.973955E+06  9.879795E+05  2.659515E+04  1.397834E+06 -1.632844E+04 -8.735653E+03
        10   7  2.189322E+06  1.139264E+06  7.792082E+04  1.505594E+06 -1.578537E+04  8.652572E+03
        10   8  2.080800E+06  1.100446E+06  5.589133E+04  1.469107E+06 -1.868362E+04 -2.003901E+03
        10   9  2.018203E+06  1.018619E+06  3.986264E+04  1.419582E+06 -2.157991E+04 -1.266305E+04
        10  10  1.758112E+06  8.357836E+05 -4.896437E+04  1.290812E+06 -1.112329E-11 -8.389387E-10
        10  11  1.820947E+06  9.180676E+05 -2.081582E+04  1.339969E+06 -8.038952E-10  8.426427E-10
        10  12  1.929709E+06  9.573419E+05  1.332748E+04  1.376088E+06 -7.532003E-10  9.691808E-10
        10  13  1.973692E+06  9.875111E+05  1.448045E+04  1.398182E+06  5.446007E-10  1.699307E-11
        10  14  1.950864E+06  1.009252E+06  1.753823E+04  1.404530E+06 -3.770534E-10  6.597405E-10
        10  15  1.973955E+06  9.879794E+05  2.659451E+04  1.397834E+06 -4.027718E-10  4.738961E-10
        10  16  2.189322E+06  1.139264E+06  7.792021E+04  1.505594E+06 -2.615228E-10  7.884478E-10
        10  17  2.080799E+06  1.100446E+06  5.589066E+04  1.469107E+06 -9.641643E-10  8.772383E-10
        10  18  2.018203E+06  1.018618E+06  3.986147E+04  1.419582E+06 -1.658318E-10 -2.346112E-10
        10  19  1.758112E+06  8.357839E+05 -4.896381E+04  1.290812E+06  5.300084E+03 -1.649733E+04
        10  20  1.820947E+06  9.180676E+05 -2.081563E+04  1.339969E+06  8.188558E+03 -5.846634E+03
        10  21  1.929709E+06  9.573419E+05  1.332776E+04  1.376088E+06  1.107753E+04  4.808665E+03
        10  22  1.973692E+06  9.875113E+05  1.448096E+04  1.398182E+06  1.054150E+04 -1.257587E+04
        10  23  1.950864E+06  1.009252E+06  1.753858E+04  1.404530E+06  1.343533E+04 -1.921927E+03
        10  24  1.973955E+06  9.879795E+05  2.659515E+04  1.397834E+06  1.632844E+04  8.735653E+03
        10  25  2.189322E+06  1.139264E+06  7.792082E+04  1.505594E+06  1.578537E+04 -8.652572E+03
        10  26  2.080800E+06  1.100446E+06  5.589133E+04  1.469107E+06  1.868362E+04  2.003901E+03
        10  27  2.018203E+06  1.018619E+06  3.986264E+04  1.419582E+06  2.157991E+04  1.266305E+04
        11   1  1.994507E+06  1.008054E+06  4.102213E+04  1.412625E+06 -1.276131E+04 -1.112645E+04
        11   2  2.060711E+06  1.084326E+06  8.899785E+04  1.457884E+06 -3.202058E+04 -3.382686E+04
        11   3  2.184297E+06  1.132414E+06  1.608829E+05  1.484566E+06 -5.172225E+04 -5.594378E+04
        11   4  1.974260E+06  9.872895E+05  3.360253E+04  1.399567E+06 -1.816829E+04 -1.516999E+04
        11   5  1.949506E+06  1.008399E+06  5.642127E+04  1.403624E+06 -3.685752E+04 -3.744501E+04
        11   6  1.982010E+06  1.001204E+06  1.026654E+05  1.389099E+06 -5.598478E+04 -5.913377E+04
        11   7  1.954014E+06  9.665259E+05  2.618312E+04  1.386511E+06 -2.357498E+04 -1.921321E+04
        11   8  1.838315E+06  9.324787E+05  2.384370E+04  1.349375E+06 -4.169326E+04 -4.106231E+04
        11   9  1.779767E+06  8.700128E+05  4.444382E+04  1.293666E+06 -6.024542E+04 -6.232249E+04
        11  10  1.994507E+06  1.008054E+06  4.102159E+04  1.412624E+06 -1.172024E-09  2.209566E-10
        11  11  2.060710E+06  1.084324E+06  8.899379E+04  1.457883E+06  3.421652E-10  2.867795E-10
        11  12  2.184293E+06  1.132410E+06  1.608720E+05  1.484564E+06  1.188731E-09 -1.404359E-10
        11  13  1.974260E+06  9.872892E+05  3.360148E+04  1.399567E+06 -2.774575E-10  2.662191E-10
        11  14  1.949505E+06  1.008397E+06  5.641611E+04  1.403623E+06  4.583115E-11  1.434611E-10
        11  15  1.982005E+06  1.001200E+06  1.026530E+05  1.389097E+06 -5.077293E-10  1.760919E-10
        11  16  1.954013E+06  9.665254E+05  2.618139E+04  1.386510E+06  8.291383E-10  3.593248E-10
        11  17  1.838313E+06  9.324764E+05  2.383729E+04  1.349374E+06  2.210183E-10  2.473202E-10
        11  18  1.779762E+06  8.700076E+05  4.442975E+04  1.293663E+06 -3.933746E-10 -8.482523E-11
        11  19  1.994507E+06  1.008054E+06  4.102213E+04  1.412625E+06  1.276131E+04  1.112645E+04
        11  20  2.060711E+06  1.084326E+06  8.899785E+04  1.457884E+06  3.202058E+04  3.382686E+04
        11  21  2.184297E+06  1.132414E+06  1.608829E+05  1.484566E+06  5.172225E+04  5.594378E+04
        11  22  1.974260E+06  9.872895E+05  3.360253E+04  1.399567E+06  1.816829E+04  1.516999E+04
        11  23  1.949506E+06  1.008399E+06  5.642127E+04  1.403624E+06  3.685752E+04  3.744501E+04
        11  24  1.982010E+06  1.001204E+06  1.026654E+05  1.389099E+06  5.598478E+04  5.913377E+04
        11  25  1.954014E+06  9.665259E+05  2.618312E+04  1.386511E+06  2.357498E+04  1.921321E+04
        11  26  1.838315E+06  9.324787E+05  2.384370E+04  1.349375E+06  4.169326E+04  4.106231E+04
        11  27  1.779767E+06  8.700128E+05  4.444382E+04  1.293666E+06  6.024542E+04  6.232249E+04
        12   1  2.191292E+06  1.225194E+06  2.076313E+05  1.566445E+06 -5.941959E+04 -6.833823E+04
        12   2  2.351454E+06  1.181818E+06  3.274872E+05  1.541603E+06 -1.644311E+05 -1.496743E+05
        12   3  2.762404E+06  1.375392E+06  6.276201E+05  1.376529E+06 -2.792858E+05 -2.179087E+05
        12   4  1.982148E+06  9.840374E+05  1.293071E+05  1.418662E+06 -6.742709E+04 -7.431951E+04
        12   5  1.933777E+06  1.002208E+06  2.211870E+05  1.387250E+06 -1.597480E+05 -1.462024E+05