
 stresses (elem, integ.pnt.,sxx,syy,szz,sxy,sxz,syz) for set ELALL and time  0.1000000E+01

         1   1  5.027696E+06  3.483822E+05  4.164053E+05  1.715390E+05  2.847242E+05  7.806876E+01
         1   2  4.981319E+06  5.018486E+03  1.930768E+05  6.125071E+04  1.826083E+05  1.787871E+01
         1   3  5.028546E+06 -1.614188E+04  1.164198E+05 -4.902754E+04  8.048898E+04 -6.307349E+00
         1   4  5.027664E+06  3.483274E+05  4.163975E+05 -3.946925E-08  2.847242E+05 -8.225166E-10
         1   5  4.981315E+06  5.011491E+03  1.930758E+05  1.788160E-08  1.826083E+05 -2.413970E-09
         1   6  5.028544E+06 -1.614636E+04  1.164191E+05  7.262157E-08  8.048898E+04 -1.921037E-09
         1   7  5.027696E+06  3.483822E+05  4.164053E+05 -1.715390E+05  2.847242E+05 -7.806876E+01
         1   8  4.981319E+06  5.018486E+03  1.930768E+05 -6.125071E+04  1.826083E+05 -1.787871E+01
         1   9  5.028546E+06 -1.614188E+04  1.164198E+05  4.902754E+04  8.048898E+04  6.307349E+00
         1  10  5.027609E+06  3.483607E+05  4.162542E+05  1.715390E+05  6.310451E-09  2.474861E-10
         1  11  4.981283E+06  5.009622E+03  1.930146E+05  6.125071E+04 -7.511492E-09 -5.584174E-10
         1  12  5.028539E+06 -1.614360E+04  1.164077E+05 -4.902754E+04 -1.649253E-08 -2.823691E-09
         1  13  5.027578E+06  3.483058E+05  4.162464E+05 -5.744397E-09  6.758483E-11 -7.229759E-10
         1  14  4.981279E+06  5.002627E+03  1.930136E+05 -9.646384E-09  2.186466E-09 -2.038563E-09
         1  15  5.028537E+06 -1.614808E+04  1.164071E+05 -4.883209E-09  9.628854E-10 -1.763429E-09
         1  16  5.027609E+06  3.483607E+05  4.162542E+05 -1.715390E+05 -6.240346E-09 -1.564014E-09
         1  17  4.981283E+06  5.009622E+03  1.930146E+05 -6.125071E+04  9.645839E-09 -3.656804E-09
         1  18  5.028539E+06 -1.614360E+04  1.164077E+05  4.902754E+04  1.432914E-08 -6.302609E-10
         1  19  5.027696E+06  3.483822E+05  4.164053E+05  1.715390E+05 -2.847242E+05 -7.806876E+01
         1  20  4.981319E+06  5.018486E+03  1.930768E+05  6.125071E+04 -1.826083E+05 -1.787871E+01
         1  21  5.028546E+06 -1.614188E+04  1.164198E+05 -4.902754E+04 -8.048898E+04  6.307349E+00
         1  22  5.027664E+06  3.483274E+05  4.163975E+05  1.508831E-08 -2.847242E+05 -6.642569E-10
         1  23  4.981315E+06  5.011491E+03  1.930758E+05  1.679740E-09 -1.826083E+05 -1.645627E-09
         1  24  5.028544E+06 -1.614636E+04  1.164191E+05 -6.570022E-08 -8.048898E+04 -1.570545E-09
         1  25  5.027696E+06  3.483822E+05  4.164053E+05 -1.715390E+05 -2.847242E+05  7.806876E+01
         1  26  4.981319E+06  5.018486E+03  1.930768E+05 -6.125071E+04 -1.826083E+05  1.787871E+01
         1  27  5.028546E+06 -1.614188E+04  1.164198E+05  4.902754E+04 -8.048898E+04 -6.307349E+00
         2   1  5.009496E+06  1.763465E+04  9.521533E+04  6.569174E+03  6.366861E+04  6.685278E-01
         2   2  5.005275E+06 -5.284452E+02  6.059614E+04  1.788437E+03  3.330950E+04  9.521963E-02
         2   3  5.009579E+06 -2.520167E+02  5.023755E+04 -2.992343E+03  2.951016E+03 -1.411446E-02
         2   4  5.009496E+06  1.763457E+04  9.521531E+04 -4.234855E-08  6.366861E+04 -1.328387E-09
         2   5  5.005275E+06 -5.284511E+02  6.059614E+04 -1.642724E-08  3.330950E+04 -3.519739E-10
         2   6  5.009579E+06 -2.520334E+02  5.023754E+04 -2.122672E-08  2.951016E+03  2.340929E-09
         2   7  5.009496E+06  1.763465E+04  9.521533E+04 -6.569174E+03  6.366861E+04 -6.685279E-01
         2   8  5.005275E+06 -5.284452E+02  6.059614E+04 -1.788437E+03  3.330950E+04 -9.521963E-02
         2   9  5.009579E+06 -2.520167E+02  5.023755E+04  2.992343E+03  2.951016E+03  1.411447E-02
         2  10  5.009492E+06  1.763357E+04  9.520777E+04  6.569174E+03  1.534421E-08 -3.139508E-09
         2  11  5.005274E+06 -5.287401E+02  6.059407E+04  1.788437E+03  8.538083E-09 -1.021298E-09
         2  12  5.009579E+06 -2.520191E+02  5.023753E+04 -2.992343E+03 -5.966096E-09  9.631645E-10
         2  13  5.009491E+06  1.763349E+04  9.520776E+04 -9.326025E-09 -4.564695E-09 -1.211679E-09
         2  14  5.005274E+06 -5.287461E+02  6.059407E+04 -1.258680E-08  8.351884E-09 -5.653856E-10
         2  15  5.009579E+06 -2.520357E+02  5.023753E+04 -9.474315E-09 -3.536361E-09  4.800626E-10
         2  16  5.009492E+06  1.763357E+04  9.520777E+04 -6.569174E+03 -1.527665E-08  7.974202E-10
         2  17  5.005274E+06 -5.287401E+02  6.059407E+04 -1.788437E+03 -4.635337E-09 -2.568172E-10
         2  18  5.009579E+06 -2.520191E+02  5.023753E+04  2.992343E+03  4.948612E-09 -1.149372E-10
         2  19  5.009496E+06  1.763465E+04  9.521533E+04  6.569174E+03 -6.366861E+04 -6.685279E-01
         2  20  5.005275E+06 -5.284452E+02  6.059614E+04  1.788437E+03 -3.330950E+04 -9.521964E-02
         2  21  5.009579E+06 -2.520167E+02  5.023755E+04 -2.992343E+03 -2.951016E+03  1.411447E-02
         2  22  5.009496E+06  1.763457E+04  9.521531E+04  5.838866E-08 -6.366861E+04 -9.875434E-10
         2  23  5.005275E+06 -5.284511E+02  6.059614E+04  8.561688E-09 -3.330950E+04 -6.617919E-10
         2  24  5.009579E+06 -2.520334E+02  5.023754E+04 -4.448617E-08 -2.951016E+03 -1.391392E-09
         2  25  5.009496E+06  1.763465E+04  9.521533E+04 -6.569174E+03 -6.366861E+04  6.685279E-01
         2  26  5.005275E+06 -5.284452E+02  6.059614E+04 -1.788437E+03 -3.330950E+04  9.521963E-02
         2  27  5.009579E+06 -2.520167E+02  5.023755E+04  2.992343E+03 -2.951016E+03 -1.411447E-02
         3   1  5.009690E+06 -3.869491E+02  5.074437E+04  3.295579E+03 -5.985844E+03 -3.153106E-02
         3   2  5.005132E+06 -5.421325E+02  6.340249E+04 -1.859410E+03 -3.775882E+04  1.122221E-01
         3   3  5.009598E+06  1.901944E+04  1.015564E+05 -7.014267E+03 -6.953208E+04  7.795627E-01
         3   4  5.009690E+06 -3.869693E+02  5.074437E+04  3.278597E-09 -5.985844E+03  2.814928E-09
         3   5  5.005132E+06 -5.421390E+02  6.340249E+04 -5.321311E-09 -3.775882E+04  2.474819E-09
         3   6  5.009598E+06  1.901935E+04  1.015564E+05 -3.716447E-08 -6.953208E+04  4.898305E-09
         3   7  5.009690E+06 -3.869491E+02  5.074437E+04 -3.295579E+03 -5.985844E+03  3.153107E-02
         3   8  5.005132E+06 -5.421325E+02  6.340249E+04  1.859410E+03 -3.775882E+04 -1.122221E-01
         3   9  5.009598E+06  1.901944E+04  1.015564E+05  7.014267E+03 -6.953208E+04 -7.795627E-01
         3  10  5.009690E+06 -3.869586E+02  5.074430E+04  3.295579E+03 -1.164209E-09  1.496592E-09
         3  11  5.005130E+06 -5.425115E+02  6.339983E+04 -1.859410E+03  1.654195E-09  1.034733E-09
         3  12  5.009593E+06  1.901815E+04  1.015474E+05 -7.014267E+03  6.956988E-09  3.091003E-10
         3  13  5.009690E+06 -3.869788E+02  5.074430E+04  3.532038E-09  2.252209E-11  1.183227E-09
         3  14  5.005130E+06 -5.425180E+02  6.339983E+04 -9.794500E-10  4.316777E-09  1.772030E-09
         3  15  5.009593E+06  1.901806E+04  1.015474E+05 -3.132200E-08  1.146805E-09  1.304965E-09
         3  16  5.009690E+06 -3.869586E+02  5.074430E+04 -3.295579E+03  3.164875E-09  9.033288E-10
         3  17  5.005130E+06 -5.425115E+02  6.339983E+04  1.859410E+03 -2.052985E-09  2.067742E-09
         3  18  5.009593E+06  1.901815E+04  1.015474E+05  7.014267E+03 -2.912444E-09  2.001867E-09
         3  19  5.009690E+06 -3.869491E+02  5.074437E+04  3.295579E+03  5.985844E+03  3.153106E-02
         3  20  5.005132E+06 -5.421325E+02  6.340249E+04 -1.859410E+03  3.775882E+04 -1.122221E-01
         3  21  5.009598E+06  1.901944E+04  1.015564E+05 -7.014267E+03  6.953208E+04 -7.795627E-01
         3  22  5.009690E+06 -3.869693E+02  5.074437E+04  3.726330E-09  5.985844E+03 -4.188776E-10
         3  23  5.005132E+06 -5.421390E+02  6.340249E+04 -9.540714E-10  3.775882E+04  1.186782E-09
         3  24  5.009598E+06  1.901935E+04  1.015564E+05 -5.476804E-08  6.953208E+04 -2.284947E-09
         3  25  5.009690E+06 -3.869491E+02  5.074437E+04 -3.295579E+03  5.985844E+03 -3.153107E-02
         3  26  5.005132E+06 -5.421325E+02  6.340249E+04  1.859410E+03  3.775882E+04  1.122221E-01
         3  27  5.009598E+06  1.901944E+04  1.015564E+05  7.014267E+03  6.953208E+04  7.795627E-01
         4   1  5.030159E+06 -1.739255E+04  1.246946E+05  5.287317E+04 -8.749555E+04 -7.394193E+00
         4   2  4.979275E+06  5.416437E+03  2.077283E+05 -6.598094E+04 -1.973694E+05  2.081636E+01
         4   3  5.029245E+06  3.754621E+05  4.487145E+05 -1.848504E+05 -3.072428E+05  9.078053E+01
         4   4  5.030156E+06 -1.739776E+04  1.246939E+05 -7.212791E-09 -8.749555E+04  3.124427E-09
         4   5  4.979270E+06  5.408320E+03  2.077272E+05  1.698777E-09 -1.973694E+05 -2.716394E-09
         4   6  5.029209E+06  3.753984E+05  4.487055E+05  4.674176E-09 -3.072428E+05 -1.493466E-09
         4   7  5.030159E+06 -1.739255E+04  1.246946E+05 -5.287317E+04 -8.749555E+04  7.394193E+00
         4   8  4.979275E+06  5.416437E+03  2.077283E+05  6.598094E+04 -1.973694E+05 -2.081636E+01
         4   9  5.029245E+06  3.754621E+05  4.487145E+05  1.848504E+05 -3.072428E+05 -9.078053E+01
         4  10  5.030151E+06 -1.739458E+04  1.246804E+05  5.287317E+04  4.725574E-09 -1.554834E-10
         4  11  4.979233E+06  5.406082E+03  2.076557E+05 -6.598094E+04  1.234367E-09 -1.119249E-09
         4  12  5.029144E+06  3.754370E+05  4.485386E+05 -1.848504E+05 -3.737439E-09 -5.927197E-10
         4  13  5.030148E+06 -1.739979E+04  1.246796E+05 -3.614278E-09  8.789327E-09  8.122824E-11
         4  14  4.979229E+06  5.397965E+03  2.076545E+05  3.184395E-08  1.935813E-09 -1.582732E-09
         4  15  5.029108E+06  3.753733E+05  4.485295E+05  3.490312E-08  1.503567E-09 -6.889145E-10
         4  16  5.030151E+06 -1.739458E+04  1.246804E+05 -5.287317E+04 -5.632767E-09  4.573521E-10
         4  17  4.979233E+06  5.406082E+03  2.076557E+05  6.598094E+04  4.187992E-10 -1.767999E-09
         4  18  5.029144E+06  3.754370E+05  4.485386E+05  1.848504E+05  2.252117E-09 -1.088485E-09
         4  19  5.030159E+06 -1.739255E+04  1.246946E+05  5.287317E+04  8.749555E+04  7.394193E+00
         4  20  4.979275E+06  5.416437E+03  2.077283E+05 -6.598094E+04  1.973694E+05 -2.081636E+01
         4  21  5.029245E+06  3.754621E+05  4.487145E+05 -1.848504E+05  3.072428E+05 -9.078053E+01
         4  22  5.030156E+06 -1.739776E+04  1.246939E+05 -1.287224E-08  8.749555E+04 -2.975263E-09
         4  23  4.979270E+06  5.408320E+03  2.077272E+05 -6.371707E-10  1.973694E+05 -3.022604E-10
         4  24  5.029209E+06  3.753984E+05  4.487055E+05  8.883152E-09  3.072428E+05  1.027542E-10
         4  25  5.030159E+06 -1.739255E+04  1.246946E+05 -5.287317E+04  8.749555E+04 -7.394193E+00
         4  26  4.979275E+06  5.416437E+03  2.077283E+05  6.598094E+04  1.973694E+05  2.081636E+01
         4  27  5.029245E+06  3.754621E+05  4.487145E+05  1.848504E+05  3.072428E+05  9.078053E+01
         5   1 -3.025763E+06 -9.722229E+06 -3.030519E+06  1.576193E+06 -1.314531E+05 -6.705565E+05
         5   2 -2.103953E+06 -7.518324E+06 -2.098471E+06  1.042503E+06 -3.841599E+05 -2.873382E+05
         5   3 -1.536337E+06 -5.434077E+06 -1.504166E+06  1.343008E+06 -3.405107E+05  9.658781E+04
         5   4 -3.535504E+05  9.763240E+05 -4.222505E+05  1.432425E+06 -1.298595E+05 -2.916038E+05
         5   5 -9.644113E+03  1.018115E+06 -1.947658E+05  1.014559E+06 -3.831778E+05 -1.873569E+05
         5   6  3.208760E+04  9.869944E+05 -1.074708E+05  1.430660E+06 -3.418168E+05 -8.380855E+04
         5   7  2.310373E+06  1.178062E+07  2.178269E+06  1.285941E+06 -1.284639E+05  9.397408E+04
         5   8  2.079724E+06  9.622997E+06  1.704419E+06  9.860740E+05 -3.822138E+05 -8.598958E+04
         5   9  1.597809E+06  7.446988E+06  1.286883E+06  1.519112E+06 -3.431659E+05 -2.660548E+05
         5  10 -3.025904E+06 -9.722723E+06 -3.031408E+06  1.576121E+06  6.612769E-10 -9.264080E-10
         5  11 -2.104134E+06 -7.518452E+06 -2.098904E+06  1.042414E+06 -3.034323E-09 -1.076419E-08
         5  12 -1.536464E+06 -5.434118E+06 -1.504402E+06  1.343034E+06 -6.883120E-09 -1.710332E-08
         5  13 -3.535912E+05  9.762284E+05 -4.224413E+05  1.432395E+06 -3.811234E-09 -1.396218E-10
         5  14 -9.811109E+03  1.018038E+06 -1.951071E+05  1.014501E+06 -4.269850E-09 -5.603948E-11
         5  15  3.196029E+04  9.869555E+05 -1.077033E+05  1.430637E+06  5.145657E-10 -1.697339E-10
         5  16  2.310353E+06  1.178060E+07  2.178222E+06  1.285950E+06 -2.674462E-09  1.094677E-09
         5  17  2.079565E+06  9.622949E+06  1.704130E+06  9.860477E+05 -2.179616E-09  1.095348E-08
         5  18  1.597664E+06  7.446881E+06  1.286531E+06  1.519039E+06 -2.243859E-09  1.692207E-08
         5  19 -3.025763E+06 -9.722229E+06 -3.030519E+06  1.576193E+06  1.314531E+05  6.705565E+05
         5  20 -2.103953E+06 -7.518324E+06 -2.098471E+06  1.042503E+06  3.841599E+05  2.873382E+05
         5  21 -1.536337E+06 -5.434077E+06 -1.504166E+06  1.343008E+06  3.405107E+05 -9.658781E+04
         5  22 -3.535504E+05  9.763240E+05 -4.222505E+05  1.432425E+06  1.298595E+05  2.916038E+05
         5  23 -9.644113E+03  1.018115E+06 -1.947658E+05  1.014559E+06  3.831778E+05  1.873569E+05
         5  24  3.208760E+04  9.869944E+05 -1.074708E+05  1.430660E+06  3.418168E+05  8.380855E+04
         5  25  2.310373E+06  1.178062E+07  2.178269E+06  1.285941E+06  1.284639E+05 -9.397408E+04
         5  26  2.079724E+06  9.622997E+06  1.704419E+06  9.860740E+05  3.822138E+05  8.598958E+04
         5  27  1.597809E+06  7.446988E+06  1.286883E+06  1.519112E+06  3.431659E+05  2.660548E+05
         6   1 -1.150668E+06 -3.716616E+06 -1.113586E+06  1.407899E+06 -2.439702E+05  2.873378E+04
         6   2 -6.112912E+05 -1.570105E+06 -5.996875E+05  9.949463E+05 -1.375933E+05  5.356779E+04
         6   3 -7.508549E+04  5.620822E+05 -1.068093E+05  1.425746E+06 -2.530562E+04  7.807850E+04
         6   4  1.067223E+03  1.003542E+06 -8.408086E+04  1.433282E+06 -2.447997E+05 -7.023504E+04
         6   5  1.788148E+04  1.013940E+06 -3.970075E+04  1.011379E+06 -1.386227E+05 -5.105034E+04
         6   6  3.287131E+04  1.006813E+06 -1.207768E+04  1.432998E+06 -2.656204E+04 -3.227369E+04
         6   7  1.151326E+06  5.744661E+06  9.441219E+05  1.458788E+06 -2.456337E+05 -1.699484E+05
         6   8  6.466192E+05  3.604279E+06  5.199304E+05  1.027860E+06 -1.396552E+05 -1.560986E+05
         6   9  1.408219E+05  1.451756E+06  8.268824E+04  1.440255E+06 -2.782048E+04 -1.427037E+05
         6  10 -1.150732E+06 -3.716633E+06 -1.113700E+06  1.407905E+06 -3.167589E-09 -5.143270E-09
         6  11 -6.113124E+05 -1.570114E+06 -5.997286E+05  9.949522E+05 -3.873846E-10  1.021824E-08
         6  12 -7.508782E+04  5.620755E+05 -1.068219E+05  1.425747E+06 -4.094458E-10  2.148562E-08
         6  13  1.001578E+03  1.003521E+06 -8.420260E+04  1.433268E+06  7.993279E-09 -1.687918E-10
         6  14  1.786016E+04  1.013932E+06 -3.974172E+04  1.011373E+06 -1.896801E-09  2.147977E-10
         6  15  3.287027E+04  1.006812E+06 -1.208096E+04  1.432998E+06  1.395542E-09 -2.369351E-11
         6  16  1.151254E+06  5.744615E+06  9.439551E+05  1.458754E+06  6.346937E-11  5.143342E-09
         6  17  6.465918E+05  3.604248E+06  5.198483E+05  1.027843E+06  7.798275E-10 -9.775757E-09
         6  18  1.408156E+05  1.451734E+06  8.264865E+04  1.440252E+06  1.336749E-09 -2.189558E-08
         6  19 -1.150668E+06 -3.716616E+06 -1.113586E+06  1.407899E+06  2.439702E+05 -2.873378E+04
         6  20 -6.112912E+05 -1.570105E+06 -5.996875E+05  9.949463E+05  1.375933E+05 -5.356779E+04
         6  21 -7.508549E+04  5.620822E+05 -1.068093E+05  1.425746E+06  2.530562E+04 -7.807850E+04
         6  22  1.067223E+03  1.003542E+06 -8.408086E+04  1.433282E+06  2.447997E+05  7.023504E+04
         6  23  1.788148E+04  1.013940E+06 -3.970075E+04  1.011379E+06  1.386227E+05  5.105034E+04
         6  24  3.287131E+04  1.006813E+06 -1.207768E+04  1.432998E+06  2.656204E+04  3.227369E+04
         6  25  1.151326E+06  5.744661E+06  9.441219E+05  1.458788E+06  2.456337E+05  1.699484E+05
         6  26  6.466192E+05  3.604279E+06  5.199304E+05  1.027860E+06  1.396552E+05  1.560986E+05
         6  27  1.408219E+05  1.451756E+06  8.268824E+04  1.440255E+06  2.782048E+04  1.427037E+05
         7   1  3.321627E+05  2.271449E+06  2.747750E+05  1.434526E+06  6.192023E+04  1.207777E+05
         7   2  8.462896E+05  4.402295E+06  7.785475E+05  1.045350E+06  1.380546E+05 -4.576150E+04
         7   3  1.450726E+06  6.569141E+06  1.409234E+06  1.492713E+06  5.279366E+04 -2.115938E+05
         7   4  2.542236E+04  1.011537E+06 -1.770920E+03  1.431681E+06  6.020005E+04 -3.205588E+04
         7   5  1.696055E+04  1.006829E+06  1.886280E+04  1.013075E+06  1.381376E+05 -4.285967E+04
         7   6  7.239545E+04  1.007209E+06  5.898380E+04  1.431217E+06  5.429404E+04 -5.237981E+04
         7   7 -2.814114E+05 -2.468445E+05 -2.783260E+05  1.428837E+06  5.847918E+04 -1.845839E+05
         7   8 -8.131497E+05 -2.377958E+06 -7.415490E+05  9.809429E+05  1.382206E+05 -3.997299E+04
         7   9 -1.308179E+06 -4.526646E+06 -1.293404E+06  1.370175E+06  5.577119E+04  1.054249E+05
         7  10  3.321547E+05  2.271433E+06  2.747406E+05  1.434520E+06  5.685875E-10 -7.599263E-11
         7  11  8.462686E+05  4.402288E+06  7.785077E+05  1.045355E+06 -7.909250E-10 -3.014696E-10
         7  12  1.450711E+06  6.569093E+06  1.409145E+06  1.492722E+06  1.863052E-10  1.250627E-09
         7  13  2.541818E+04  1.011535E+06 -1.779683E+03  1.431683E+06  9.173299E-10 -1.003632E-10
         7  14  1.693955E+04  1.006822E+06  1.882343E+04  1.013080E+06  3.595949E-09 -8.001153E-12
         7  15  7.239154E+04  1.007205E+06  5.897308E+04  1.431219E+06 -2.662082E-09 -1.595111E-10
         7  16 -2.814242E+05 -2.468820E+05 -2.783966E+05  1.428846E+06  1.252517E-09 -7.883029E-11
         7  17 -8.131706E+05 -2.377965E+06 -7.415880E+05  9.809473E+05 -9.279658E-10  1.495852E-10
         7  18 -1.308186E+06 -4.526658E+06 -1.293431E+06  1.370170E+06  2.907915E-10 -1.299962E-09
         7  19  3.321627E+05  2.271449E+06  2.747750E+05  1.434526E+06 -6.192023E+04 -1.207777E+05
         7  20  8.462896E+05  4.402295E+06  7.785475E+05  1.045350E+06 -1.380546E+05  4.576150E+04
         7  21  1.450726E+06  6.569141E+06  1.409234E+06  1.492713E+06 -5.279366E+04  2.115938E+05
         7  22  2.542236E+04  1.011537E+06 -1.770920E+03  1.431681E+06 -6.020005E+04  3.205588E+04
         7  23  1.696055E+04  1.006829E+06  1.886280E+04  1.013075E+06 -1.381376E+05  4.285967E+04
         7  24  7.239545E+04  1.007209E+06  5.898380E+04  1.431217E+06 -5.429404E+04  5.237981E+04
         7  25 -2.814114E+05 -2.468445E+05 -2.783260E+05  1.428837E+06 -5.847918E+04  1.845839E+05
         7  26 -8.131497E+05 -2.377958E+06 -7.415490E+05  9.809429E+05 -1.382206E+05  3.997299E+04
         7  27 -1.308179E+06 -4.526646E+06 -1.293404E+06  1.370175E+06 -5.577119E+04 -1.054249E+05
         8   1  3.904506E+06  1.809328E+05  2.163423E+05  8.903025E+04  1.471379E+05  2.097438E+01
         8   2  3.880337E+06  2.568971E+03  1.008040E+05  3.181940E+04  9.384836E+04  4.781381E+00
         8   3  3.904855E+06 -8.393917E+03  6.165748E+04 -2.538825E+04  4.055829E+04 -1.648653E+00
         8   4  3.904498E+06  1.809180E+05  2.163402E+05 -2.219766E-09  1.471379E+05 -2.125891E-11
         8   5  3.880336E+06  2.567080E+03  1.008037E+05  1.101653E-08  9.384836E+04 -5.611419E-10
         8   6  3.904854E+06 -8.395120E+03  6.165731E+04  2.153109E-08  4.055829E+04 -2.193740E-09
         8   7  3.904506E+06  1.809328E+05  2.163423E+05 -8.903025E+04  1.471379E+05 -2.097438E+01
         8   8  3.880337E+06  2.568971E+03  1.008040E+05 -3.181940E+04  9.384836E+04 -4.781381E+00
         8   9  3.904855E+06 -8.393917E+03  6.165748E+04  2.538825E+04  4.055829E+04  1.648653E+00
         8  10  3.904483E+06  1.809271E+05  2.163019E+05  8.903025E+04  1.802209E-09 -2.931793E-10
         8  11  3.880328E+06  2.566624E+03  1.007875E+05  3.181940E+04 -2.647825E-09 -7.283276E-10
         8  12  3.904853E+06 -8.394355E+03  6.165441E+04 -2.538825E+04  7.174905E-09 -1.855902E-09
         8  13  3.904475E+06  1.809123E+05  2.162997E+05 -2.363246E-09 -2.202142E-09 -2.416311E-10
         8  14  3.880327E+06  2.564733E+03  1.007873E+05  1.952309E-08 -6.646659E-09 -9.136241E-10
         8  15  3.904852E+06 -8.395559E+03  6.165423E+04  3.706158E-08  2.774459E-09 -1.526095E-09
         8  16  3.904483E+06  1.809271E+05  2.163019E+05 -8.903025E+04  4.424553E-10 -3.641170E-10
         8  17  3.880328E+06  2.566624E+03  1.007875E+05 -3.181940E+04 -3.328795E-09 -8.916620E-10
         8  18  3.904853E+06 -8.394355E+03  6.165441E+04  2.538825E+04 -4.983895E-09 -1.184039E-09
         8  19  3.904506E+06  1.809328E+05  2.163423E+05  8.903025E+04 -1.471379E+05 -2.097438E+01
         8  20  3.880337E+06  2.568971E+03  1.008040E+05  3.181940E+04 -9.384836E+04 -4.781381E+00
         8  21  3.904855E+06 -8.393917E+03  6.165748E+04 -2.538825E+04 -4.055829E+04  1.648653E+00
         8  22  3.904498E+06  1.809180E+05  2.163402E+05 -2.557324E-09 -1.471379E+05 -3.858436E-10
         8  23  3.880336E+06  2.567080E+03  1.008037E+05  1.719294E-08 -9.384836E+04 -1.275888E-09
         8  24  3.904854E+06 -8.395120E+03  6.165731E+04 -1.045719E-08 -4.055829E+04 -8.802511E-10
         8  25  3.904506E+06  1.809328E+05  2.163423E+05 -8.903025E+04 -1.471379E+05  2.097438E+01
         8  26  3.880337E+06  2.568971E+03  1.008040E+05 -3.181940E+04 -9.384836E+04  4.781381E+00
         8  27  3.904855E+06 -8.393917E+03  6.165748E+04  2.538825E+04 -4.055829E+04 -1.648653E+00
         9   1  3.895018E+06  9.142036E+03  5.109958E+04  3.515092E+03  3.157420E+04  1.777022E-01
         9   2  3.892690E+06 -3.188283E+02  3.445751E+04  1.036387E+03  1.433058E+04  2.377990E-02
         9   3  3.895048E+06  5.304969E+01  3.144862E+04 -1.442290E+03 -2.912645E+03  6.726097E-03
         9   4  3.895018E+06  9.142013E+03  5.109958E+04 -4.916927E-08  3.157420E+04 -1.705659E-09
         9   5  3.892690E+06 -3.188303E+02  3.445751E+04  1.533988E-08  1.433058E+04  1.235851E-09
         9   6  3.895048E+06  5.304581E+01  3.144862E+04  6.041686E-08 -2.912645E+03  2.860901E-09
         9   7  3.895018E+06  9.142036E+03  5.109958E+04 -3.515092E+03  3.157420E+04 -1.777022E-01
         9   8  3.892690E+06 -3.188283E+02  3.445751E+04 -1.036387E+03  1.433058E+04 -2.377990E-02
         9   9  3.895048E+06  5.304969E+01  3.144862E+04  1.442290E+03 -2.912645E+03 -6.726091E-03
         9  10  3.895017E+06  9.141771E+03  5.109772E+04  3.515092E+03  1.935072E-08 -6.851253E-10
         9  11  3.892690E+06 -3.188830E+02  3.445713E+04  1.036387E+03  3.817863E-10  2.790923E-09
         9  12  3.895048E+06  5.304743E+01  3.144860E+04 -1.442290E+03 -2.046332E-08  4.403022E-09
         9  13  3.895017E+06  9.141747E+03  5.109771E+04  1.039151E-08  2.495025E-10 -3.637900E-10
         9  14  3.892690E+06 -3.188850E+02  3.445713E+04  1.150216E-08  1.326129E-08  2.682710E-09
         9  15  3.895048E+06  5.304355E+01  3.144860E+04  7.270313E-09  7.686653E-10  3.762101E-09
         9  16  3.895017E+06  9.141771E+03  5.109772E+04 -3.515092E+03 -1.619244E-08 -1.819608E-10
         9  17  3.892690E+06 -3.188830E+02  3.445713E+04 -1.036387E+03  6.441127E-09  2.908835E-09
         9  18  3.895048E+06  5.304743E+01  3.144860E+04  1.442290E+03  2.681378E-08  3.173012E-09
         9  19  3.895018E+06  9.142036E+03  5.109958E+04  3.515092E+03 -3.157420E+04 -1.777022E-01
         9  20  3.892690E+06 -3.188283E+02  3.445751E+04  1.036387E+03 -1.433058E+04 -2.377989E-02
         9  21  3.895048E+06  5.304969E+01  3.144862E+04 -1.442290E+03  2.912645E+03 -6.726089E-03
         9  22  3.895018E+06  9.142013E+03  5.109958E+04  4.403519E-08 -3.157420E+04  8.735632E-10
         9  23  3.892690E+06 -3.188303E+02  3.445751E+04  1.198319E-08 -1.433058E+04  4.301693E-09
         9  24  3.895048E+06  5.304581E+01  3.144862E+04 -4.218115E-08  2.912645E+03  4.643017E-09
         9  25  3.895018E+06  9.142036E+03  5.109958E+04 -3.515092E+03 -3.157420E+04  1.777022E-01
         9  26  3.892690E+06 -3.188283E+02  3.445751E+04 -1.036387E+03 -1.433058E+04  2.377990E-02
         9  27  3.895048E+06  5.304969E+01  3.144862E+04  1.442290E+03  2.912645E+03  6.726098E-03
        10   1  3.895474E+06 -4.625139E+02  3.338103E+04  2.598047E+03 -8.644742E+03 -3.596016E-02
        10   2  3.892144E+06 -3.716707E+02  4.515962E+04 -1.308149E+03 -3.128025E+04  6.551679E-02
        10   3  3.895416E+06  1.443055E+04  7.528650E+04 -5.214366E+03 -5.391655E+04  4.501403E-01
        10   4  3.895474E+06 -4.625265E+02  3.338102E+04  4.447516E-08 -8.644742E+03  1.101596E-09
        10   5  3.892144E+06 -3.716739E+02  4.515962E+04 -1.647576E-08 -3.128025E+04 -2.579531E-09
        10   6  3.895416E+06  1.443049E+04  7.528649E+04 -8.497663E-08 -5.391655E+04 -1.223385E-09
        10   7  3.895474E+06 -4.625139E+02  3.338103E+04 -2.598047E+03 -8.644742E+03  3.596017E-02
        10   8  3.892144E+06 -3.716707E+02  4.515962E+04  1.308149E+03 -3.128025E+04 -6.551680E-02
        10   9  3.895416E+06  1.443055E+04  7.528650E+04  5.214366E+03 -5.391655E+04 -4.501403E-01
        10  10  3.895474E+06 -4.625338E+02  3.338089E+04  2.598047E+03 -1.551275E-08  2.350577E-09
        10  11  3.892143E+06 -3.719314E+02  4.515780E+04 -1.308149E+03  1.520584E-09 -2.601025E-09
        10  12  3.895413E+06  1.442977E+04  7.528107E+04 -5.214366E+03  2.081119E-08 -9.998781E-10
        10  13  3.895474E+06 -4.625464E+02  3.338088E+04 -1.548253E-08 -3.167760E-10  1.667548E-09
        10  14  3.892143E+06 -3.719346E+02  4.515780E+04 -3.798021E-09  2.332667E-09 -1.794327E-09
        10  15  3.895413E+06  1.442972E+04  7.528106E+04  5.762878E-09  4.466746E-09 -3.544314E-10
        10  16  3.895474E+06 -4.625338E+02  3.338089E+04 -2.598047E+03  1.790646E-08  1.169715E-09
        10  17  3.892143E+06 -3.719314E+02  4.515780E+04  1.308149E+03  3.434729E-09 -1.342275E-09
        10  18  3.895413E+06  1.442977E+04  7.528107E+04  5.214366E+03 -1.341331E-08  2.953951E-10
        10  19  3.895474E+06 -4.625139E+02  3.338103E+04  2.598047E+03  8.644742E+03  3.596017E-02
        10  20  3.892144E+06 -3.716707E+02  4.515962E+04 -1.308149E+03  3.128025E+04 -6.551680E-02
        10  21  3.895416E+06  1.443055E+04  7.528650E+04 -5.214366E+03  5.391655E+04 -4.501403E-01
        10  22  3.895474E+06 -4.625265E+02  3.338102E+04 -4.955272E-08  8.644742E+03  2.241856E-09
        10  23  3.892144E+06 -3.716739E+02  4.515962E+04 -1.695272E-08  3.128025E+04 -1.199443E-09
        10  24  3.895416E+06  1.443049E+04  7.528649E+04  6.097486E-08  5.391655E+04  5.006662E-10
        10  25  3.895474E+06 -4.625139E+02  3.338103E+04 -2.598047E+03  8.644742E+03 -3.596016E-02
        10  26  3.892144E+06 -3.716707E+02  4.515962E+04  1.308149E+03  3.128025E+04  6.551679E-02
        10  27  3.895416E+06  1.443055E+04  7.528650E+04  5.214366E+03  5.391655E+04  4.501403E-01
        11   1  3.911013E+06 -1.317202E+04  9.321768E+04  4.005972E+04 -6.724946E+04 -4.313307E+00
        11   2  3.872554E+06  4.064611E+03  1.566798E+05 -4.985021E+04 -1.501226E+05  1.198270E+01
        11   3  3.910473E+06  2.842662E+05  3.396084E+05 -1.397679E+05 -2.329946E+05  5.214143E+01
        11   4  3.911011E+06 -1.317502E+04  9.321725E+04  8.046928E-08 -6.724946E+04 -9.567185E-10
        11   5  3.872551E+06  4.059970E+03  1.566791E+05 -1.251471E-09 -1.501226E+05 -2.417675E-09
        11   6  3.910452E+06  2.842297E+05  3.396032E+05 -6.567901E-08 -2.329946E+05 -8.303299E-10
        11   7  3.911013E+06 -1.317202E+04  9.321768E+04 -4.005972E+04 -6.724946E+04  4.313307E+00
        11   8  3.872554E+06  4.064611E+03  1.566798E+05  4.985021E+04 -1.501226E+05 -1.198270E+01
        11   9  3.910473E+06  2.842662E+05  3.396084E+05  1.397679E+05 -2.329946E+05 -5.214143E+01
        11  10  3.911008E+06 -1.317322E+04  9.320923E+04  4.005972E+04 -1.839483E-08 -3.774700E-10
        11  11  3.872530E+06  4.058607E+03  1.566377E+05 -4.985021E+04  1.725974E-09 -1.826507E-09
        11  12  3.910415E+06  2.842517E+05  3.395070E+05 -1.397679E+05  1.887006E-08 -7.467231E-10
        11  13  3.911006E+06 -1.317622E+04  9.320881E+04  3.980392E-09  4.213725E-09  8.059413E-11
        11  14  3.872527E+06  4.053966E+03  1.566370E+05 -1.340378E-09  1.061448E-08 -1.625657E-09
        11  15  3.910394E+06  2.842152E+05  3.395018E+05  3.107618E-08  2.672913E-09 -7.490949E-10
        11  16  3.911008E+06 -1.317322E+04  9.320923E+04 -4.005972E+04  1.742643E-08  2.605346E-10
        11  17  3.872530E+06  4.058607E+03  1.566377E+05  4.985021E+04  3.648658E-09 -1.286096E-09
        11  18  3.910415E+06  2.842517E+05  3.395070E+05  1.397679E+05 -1.699145E-08 -8.121593E-10
        11  19  3.911013E+06 -1.317202E+04  9.321768E+04  4.005972E+04  6.724946E+04  4.313307E+00
        11  20  3.872554E+06  4.064611E+03  1.566798E+05 -4.985021E+04  1.501226E+05 -1.198270E+01
        11  21  3.910473E+06  2.842662E+05  3.396084E+05 -1.397679E+05  2.329946E+05 -5.214143E+01
        11  22  3.911011E+06 -1.317502E+04  9.321725E+04 -5.521257E-08  6.724946E+04  1.000172E-09
        11  23  3.872551E+06  4.059970E+03  1.566791E+05  2.444852E-08  1.501226E+05 -8.433903E-10
        11  24  3.910452E+06  2.842297E+05  3.396032E+05  8.639176E-08  2.329946E+05 -6.001793E-10
        11  25  3.911013E+06 -1.317202E+04  9.321768E+04 -4.005972E+04  6.724946E+04 -4.313307E+00
        11  26  3.872554E+06  4.064611E+03  1.566798E+05  4.985021E+04  1.501226E+05  1.198270E+01
        11  27  3.910473E+06  2.842662E+05  3.396084E+05  1.397679E+05  2.329946E+05  5.214143E+01
        12   1 -2.753019E+06 -9.151754E+06 -2.812424E+06  1.534786E+06 -1.065101E+05 -7.614617E+05
        12   2 -1.685677E+06 -7.137303E+06 -1.837049E+06  9.803497E+05 -3.060753E+05 -3.655865E+05
        12   3 -1.166598E+06 -5.300052E+06 -1.257587E+06  1.175612E+06 -2.608387E+05  3.109346E+04
        12   4 -5.619490E+05 -3.809536E+05 -6.721838E+05  1.280724E+06 -1.051911E+05 -4.580981E+05
        12   5 -9.724635E+03 -3.080882E+05 -3.122033E+05  9.046805E+05 -3.054217E+05 -2.922624E+05