
 stresses (elem, integ.pnt.,sxx,syy,szz,sxy,sxz,syz) for set ELALL and time  0.1000000E+01

         1   1  1.605717E+06  9.777837E+04  1.067243E+05  6.360005E+04  7.366663E+04  7.528078E+00
         1   2  1.597669E+06  2.669905E+04  5.349850E+04  3.067522E+04  4.619571E+04  2.276916E+00
         1   3  1.605785E+06  6.027203E+03  3.072784E+04 -2.249240E+03  1.872444E+04 -6.766992E-02
         1   4  1.605713E+06  9.777079E+04  1.067232E+05 -2.181496E-09  7.366663E+04  2.109264E-10
         1   5  1.597668E+06  2.669729E+04  5.349825E+04 -8.553261E-10  4.619571E+04  6.791974E-10
         1   6  1.605785E+06  6.027193E+03  3.072784E+04 -2.745428E-09  1.872444E+04  7.817027E-10
         1   7  1.605717E+06  9.777837E+04  1.067243E+05 -6.360005E+04  7.366663E+04 -7.528078E+00
         1   8  1.597669E+06  2.669905E+04  5.349850E+04 -3.067522E+04  4.619571E+04 -2.276916E+00
         1   9  1.605785E+06  6.027203E+03  3.072784E+04  2.249240E+03  1.872444E+04  6.766992E-02
         1  10  1.605711E+06  9.777692E+04  1.067142E+05  6.360005E+04 -7.429013E-10  1.470336E-10
         1  11  1.597667E+06  2.669848E+04  5.349450E+04  3.067522E+04 -5.001044E-10  5.301388E-10
         1  12  1.605785E+06  6.027109E+03  3.072718E+04 -2.249240E+03 -1.388380E-09  7.278690E-10
         1  13  1.605707E+06  9.776933E+04  1.067131E+05 -1.044663E-09 -5.220105E-10  1.333664E-10
         1  14  1.597666E+06  2.669672E+04  5.349425E+04 -2.279748E-10 -2.604970E-10  4.978293E-10
         1  15  1.605785E+06  6.027099E+03  3.072718E+04 -1.606320E-10  2.874768E-10  6.793902E-10
         1  16  1.605711E+06  9.777692E+04  1.067142E+05 -6.360005E+04  3.743019E-10  1.110323E-10
         1  17  1.597667E+06  2.669848E+04  5.349450E+04 -3.067522E+04  4.249385E-10  4.175094E-10
         1  18  1.605785E+06  6.027109E+03  3.072718E+04  2.249240E+03  8.870958E-10  7.163865E-10
         1  19  1.605717E+06  9.777837E+04  1.067243E+05  6.360005E+04 -7.366663E+04 -7.528078E+00
         1  20  1.597669E+06  2.669905E+04  5.349850E+04  3.067522E+04 -4.619571E+04 -2.276916E+00
         1  21  1.605785E+06  6.027203E+03  3.072784E+04 -2.249240E+03 -1.872444E+04  6.766992E-02
         1  22  1.605713E+06  9.777079E+04  1.067232E+05 -9.307694E-10 -7.366663E+04  4.849244E-11
         1  23  1.597668E+06  2.669729E+04  5.349825E+04  9.171620E-10 -4.619571E+04  3.071825E-10
         1  24  1.605785E+06  6.027193E+03  3.072784E+04  1.295936E-09 -1.872444E+04  5.731445E-10
         1  25  1.605717E+06  9.777837E+04  1.067243E+05 -6.360005E+04 -7.366663E+04  7.528078E+00
         1  26  1.597669E+06  2.669905E+04  5.349850E+04 -3.067522E+04 -4.619571E+04  2.276916E+00
         1  27  1.605785E+06  6.027203E+03  3.072784E+04  2.249240E+03 -1.872444E+04 -6.766992E-02
         2   1  1.602639E+06  5.531802E+03  2.445971E+04  2.984080E+03  1.456527E+04  6.983639E-02
         2   2  1.601631E+06  1.107615E+03  1.691751E+04  1.365721E+03  6.129178E+03  1.344985E-02
         2   3  1.602644E+06  3.886278E+02  1.578359E+04 -2.526397E+02 -2.306881E+03  9.364379E-04
         2   4  1.602639E+06  5.531786E+03  2.445970E+04 -2.782780E-09  1.456527E+04  7.541383E-10
         2   5  1.601631E+06  1.107612E+03  1.691751E+04 -3.691866E-09  6.129178E+03  4.603479E-10
         2   6  1.602644E+06  3.886276E+02  1.578359E+04 -7.455023E-09 -2.306881E+03 -3.060829E-10
         2   7  1.602639E+06  5.531802E+03  2.445971E+04 -2.984080E+03  1.456527E+04 -6.983639E-02
         2   8  1.601631E+06  1.107615E+03  1.691751E+04 -1.365721E+03  6.129178E+03 -1.344985E-02
         2   9  1.602644E+06  3.886278E+02  1.578359E+04  2.526397E+02 -2.306881E+03 -9.364387E-04
         2  10  1.602638E+06  5.531746E+03  2.445931E+04  2.984080E+03 -1.321845E-09  7.908186E-10
         2  11  1.601631E+06  1.107605E+03  1.691744E+04  1.365721E+03 -1.195210E-09  5.124857E-10
         2  12  1.602644E+06  3.886263E+02  1.578358E+04 -2.526397E+02 -1.326730E-09 -6.085167E-10
         2  13  1.602638E+06  5.531729E+03  2.445931E+04  6.985535E-10 -5.243777E-10  7.319995E-10
         2  14  1.601631E+06  1.107601E+03  1.691744E+04 -3.404560E-11  1.792143E-10  3.945276E-10
         2  15  1.602644E+06  3.886262E+02  1.578358E+04 -6.067060E-10 -3.029698E-10 -6.092579E-10
         2  16  1.602638E+06  5.531746E+03  2.445931E+04 -2.984080E+03  1.557653E-09  6.825565E-10
         2  17  1.601631E+06  1.107605E+03  1.691744E+04 -1.365721E+03  6.693008E-10  2.657346E-10
         2  18  1.602644E+06  3.886263E+02  1.578358E+04  2.526397E+02  1.270205E-09 -5.991311E-10
         2  19  1.602639E+06  5.531802E+03  2.445971E+04  2.984080E+03 -1.456527E+04 -6.983639E-02
         2  20  1.601631E+06  1.107615E+03  1.691751E+04  1.365721E+03 -6.129178E+03 -1.344985E-02
         2  21  1.602644E+06  3.886278E+02  1.578359E+04 -2.526397E+02  2.306881E+03 -9.364393E-04
         2  22  1.602639E+06  5.531786E+03  2.445970E+04  2.613941E-09 -1.456527E+04  7.161466E-10
         2  23  1.601631E+06  1.107612E+03  1.691751E+04  3.341723E-09 -6.129178E+03  3.594531E-10
         2  24  1.602644E+06  3.886276E+02  1.578359E+04  4.157896E-09  2.306881E+03 -8.840236E-10
         2  25  1.602639E+06  5.531802E+03  2.445971E+04 -2.984080E+03 -1.456527E+04  6.983639E-02
         2  26  1.601631E+06  1.107615E+03  1.691751E+04 -1.365721E+03 -6.129178E+03  1.344985E-02
         2  27  1.602644E+06  3.886278E+02  1.578359E+04  2.526397E+02  2.306881E+03  9.364376E-04
         3   1  1.602886E+06  3.735594E+02  1.708736E+04  9.500164E+02 -5.148429E+03 -7.858835E-03
         3   2  1.601324E+06  2.127146E+03  2.409218E+04 -2.013800E+03 -1.718083E+04  5.559223E-02
         3   3  1.602873E+06  1.007421E+04  4.046467E+04 -4.977558E+03 -2.921319E+04  2.336407E-01
         3   4  1.602886E+06  3.735578E+02  1.708736E+04  1.161091E-07 -5.148429E+03 -1.201106E-09
         3   5  1.601324E+06  2.127138E+03  2.409218E+04 -9.845251E-10 -1.718083E+04 -2.168283E-09
         3   6  1.602873E+06  1.007416E+04  4.046466E+04 -1.185700E-07 -2.921319E+04 -1.567722E-09
         3   7  1.602886E+06  3.735594E+02  1.708736E+04 -9.500164E+02 -5.148429E+03  7.858833E-03
         3   8  1.601324E+06  2.127146E+03  2.409218E+04  2.013800E+03 -1.718083E+04 -5.559223E-02
         3   9  1.602873E+06  1.007421E+04  4.046467E+04  4.977558E+03 -2.921319E+04 -2.336407E-01
         3  10  1.602886E+06  3.735523E+02  1.708731E+04  9.500164E+02 -6.169394E-08 -1.558420E-09
         3  11  1.601324E+06  2.127067E+03  2.409163E+04 -2.013800E+03  1.555678E-10 -2.227744E-09
         3  12  1.602872E+06  1.007398E+04  4.046307E+04 -4.977558E+03  6.121653E-08 -1.584854E-09
         3  13  1.602886E+06  3.735507E+02  1.708731E+04  9.772605E-10  1.996828E-10 -1.486244E-09
         3  14  1.601324E+06  2.127059E+03  2.409163E+04  4.719527E-10 -1.347110E-10 -2.201966E-09
         3  15  1.602872E+06  1.007394E+04  4.046306E+04 -1.127862E-09 -6.399687E-10 -1.558262E-09
         3  16  1.602886E+06  3.735523E+02  1.708731E+04 -9.500164E+02  6.143660E-08 -1.480333E-09
         3  17  1.601324E+06  2.127067E+03  2.409163E+04  2.013800E+03 -2.452301E-10 -2.153507E-09
         3  18  1.602872E+06  1.007398E+04  4.046307E+04  4.977558E+03 -6.131136E-08 -1.570043E-09
         3  19  1.602886E+06  3.735594E+02  1.708736E+04  9.500164E+02  5.148429E+03  7.858832E-03
         3  20  1.601324E+06  2.127146E+03  2.409218E+04 -2.013800E+03  1.718083E+04 -5.559223E-02
         3  21  1.602873E+06  1.007421E+04  4.046467E+04 -4.977558E+03  2.921319E+04 -2.336407E-01
         3  22  1.602886E+06  3.735578E+02  1.708736E+04 -1.173665E-07  5.148429E+03 -1.791406E-09
         3  23  1.601324E+06  2.127138E+03  2.409218E+04 -7.572947E-10  1.718083E+04 -2.263189E-09
         3  24  1.602873E+06  1.007416E+04  4.046466E+04  1.152620E-07  2.921319E+04 -1.556326E-09
         3  25  1.602886E+06  3.735594E+02  1.708736E+04 -9.500164E+02  5.148429E+03 -7.858836E-03
         3  26  1.601324E+06  2.127146E+03  2.409218E+04  2.013800E+03  1.718083E+04  5.559223E-02
         3  27  1.602873E+06  1.007421E+04  4.046467E+04  4.977558E+03  2.921319E+04  2.336407E-01
         4   1  1.608627E+06  1.093220E+04  5.268036E+04  4.321917E+03 -3.614481E+04 -2.509991E-01
         4   2  1.594079E+06  4.806584E+04  9.498769E+04 -5.492236E+04 -8.493725E+04  7.495649E+00
         4   3  1.608510E+06  1.758020E+05  1.916587E+05 -1.141702E+05 -1.337306E+05  2.453254E+01
         4   4  1.608627E+06  1.093216E+04  5.268036E+04  4.070373E-09 -3.614481E+04 -5.484649E-10
         4   5  1.594076E+06  4.806019E+04  9.498688E+04  3.245925E-09 -8.493725E+04  6.355149E-10
         4   6  1.608496E+06  1.757775E+05  1.916552E+05  1.360704E-09 -1.337306E+05  3.775425E-10
         4   7  1.608627E+06  1.093220E+04  5.268036E+04 -4.321917E+03 -3.614481E+04  2.509991E-01
         4   8  1.594079E+06  4.806584E+04  9.498769E+04  5.492236E+04 -8.493725E+04 -7.495649E+00
         4   9  1.608510E+06  1.758020E+05  1.916587E+05  1.141702E+05 -1.337306E+05 -2.453254E+01
         4  10  1.608626E+06  1.093185E+04  5.267791E+04  4.321917E+03  3.967748E-10 -6.053511E-10
         4  11  1.594071E+06  4.806391E+04  9.497416E+04 -5.492236E+04  7.717874E-10  3.957368E-10
         4  12  1.608491E+06  1.757972E+05  1.916252E+05 -1.141702E+05  8.962839E-10  2.655141E-10
         4  13  1.608626E+06  1.093181E+04  5.267791E+04 -3.110180E-10 -2.155797E-10 -5.867177E-10
         4  14  1.594068E+06  4.805826E+04  9.497336E+04  3.457396E-10 -4.579974E-10  4.669212E-10
         4  15  1.608477E+06  1.757728E+05  1.916217E+05  9.436053E-10 -6.016096E-10  2.904047E-10
         4  16  1.608626E+06  1.093185E+04  5.267791E+04 -4.321917E+03 -6.123546E-10 -5.662970E-10
         4  17  1.594071E+06  4.806391E+04  9.497416E+04  5.492236E+04 -8.055318E-10  5.120313E-10
         4  18  1.608491E+06  1.757972E+05  1.916252E+05  1.141702E+05 -1.769463E-09  3.143079E-10
         4  19  1.608627E+06  1.093220E+04  5.268036E+04  4.321917E+03  3.614481E+04  2.509991E-01
         4  20  1.594079E+06  4.806584E+04  9.498769E+04 -5.492236E+04  8.493725E+04 -7.495649E+00
         4  21  1.608510E+06  1.758020E+05  1.916587E+05 -1.141702E+05  1.337306E+05 -2.453254E+01
         4  22  1.608627E+06  1.093216E+04  5.268036E+04 -5.786918E-09  3.614481E+04 -6.292817E-10
         4  23  1.594076E+06  4.806019E+04  9.498688E+04 -2.693388E-09  8.493725E+04  3.131581E-10
         4  24  1.608496E+06  1.757775E+05  1.916552E+05 -1.271158E-09  1.337306E+05  1.914648E-10
         4  25  1.608627E+06  1.093220E+04  5.268036E+04 -4.321917E+03  3.614481E+04 -2.509991E-01
         4  26  1.594079E+06  4.806584E+04  9.498769E+04  5.492236E+04  8.493725E+04  7.495649E+00
         4  27  1.608510E+06  1.758020E+05  1.916587E+05  1.141702E+05  1.337306E+05  2.453254E+01
         5   1 -6.123903E+05 -1.531946E+06 -6.026119E+05  5.364198E+05 -2.223688E+04 -2.356799E+05
         5   2 -4.017248E+05 -1.115379E+06 -3.681243E+05  4.532264E+05 -6.864971E+04 -1.125218E+05
         5   3 -2.749637E+05 -7.355780E+05 -2.348970E+05  4.462499E+05 -6.988848E+04  1.073075E+04
         5   4 -1.339771E+05  4.028522E+05 -1.461265E+05  4.507666E+05 -2.209100E+04 -1.033635E+05
         5   5 -3.644285E+04  4.139385E+05 -7.128689E+04  4.125910E+05 -6.858097E+04 -6.666590E+04
         5   6 -7.661060E+03  4.032246E+05 -3.750070E+04  4.506537E+05 -6.993008E+04 -2.996311E+04
         5   7  3.442057E+05  2.341151E+06  3.101706E+05  3.648426E+05 -2.198205E+04  2.936414E+04
         5   8  3.287068E+05  1.945512E+06  2.254492E+05  3.718520E+05 -6.851837E+04 -2.069932E+04
         5   9  2.595727E+05  1.543303E+06  1.598567E+05  4.550649E+05 -6.997219E+04 -7.072936E+04
         5  10 -6.124058E+05 -1.532006E+06 -6.027174E+05  5.364156E+05 -7.585172E-11  2.471369E-10
         5  11 -4.017332E+05 -1.115394E+06 -3.681569E+05  4.532201E+05 -2.492007E-10 -1.746232E-10
         5  12 -2.749690E+05 -7.355795E+05 -2.349064E+05  4.462505E+05 -2.931883E-10 -5.420257E-10
         5  13 -1.339805E+05  4.028406E+05 -1.461475E+05  4.507648E+05  4.772919E-11 -4.627899E-11
         5  14 -3.644909E+04  4.139325E+05 -7.130407E+04  4.125873E+05  5.176430E-10 -1.423827E-11
         5  15 -7.666550E+03  4.032223E+05 -3.751157E+04  4.506520E+05 -2.173593E-10  1.668137E-11
         5  16  3.442050E+05  2.341150E+06  3.101681E+05  3.648432E+05 -6.447654E-10 -1.997666E-10
         5  17  3.287017E+05  1.945510E+06  2.254396E+05  3.718508E+05 -4.248414E-10  1.678317E-10
         5  18  2.595661E+05  1.543297E+06  1.598382E+05  4.550610E+05  1.640107E-10  4.852369E-10
         5  19 -6.123903E+05 -1.531946E+06 -6.026119E+05  5.364198E+05  2.223688E+04  2.356799E+05
         5  20 -4.017248E+05 -1.115379E+06 -3.681243E+05  4.532264E+05  6.864971E+04  1.125218E+05
         5  21 -2.749637E+05 -7.355780E+05 -2.348970E+05  4.462499E+05  6.988848E+04 -1.073075E+04
         5  22 -1.339771E+05  4.028522E+05 -1.461265E+05  4.507666E+05  2.209100E+04  1.033635E+05
         5  23 -3.644285E+04  4.139385E+05 -7.128689E+04  4.125910E+05  6.858097E+04  6.666590E+04
         5  24 -7.661060E+03  4.032246E+05 -3.750070E+04  4.506537E+05  6.993008E+04  2.996311E+04
         5  25  3.442057E+05  2.341151E+06  3.101706E+05  3.648426E+05  2.198205E+04 -2.936414E+04
         5  26  3.287068E+05  1.945512E+06  2.254492E+05  3.718520E+05  6.851837E+04  2.069932E+04
         5  27  2.595727E+05  1.543303E+06  1.598567E+05  4.550649E+05  6.997219E+04  7.072936E+04
         6   1 -2.136964E+05 -4.754502E+05 -1.779464E+05  4.539625E+05 -5.605323E+04  1.330961E+04
         6   2 -1.129326E+05 -7.644156E+04 -8.945128E+04  4.130092E+05 -3.481507E+04  2.350781E+04
         6   3 -1.614757E+04  3.203041E+05 -8.634069E+03  4.512261E+05 -1.131488E+04  3.370348E+04
         6   4 -6.896023E+03  4.077982E+05 -2.720606E+04  4.513101E+05 -5.610014E+04 -2.526962E+04
         6   5 -3.882929E+02  4.086892E+05 -1.175115E+04  4.117201E+05 -3.487468E+04 -1.941475E+04
         6   6  2.906080E+03  4.079230E+05 -9.492998E+02  4.512971E+05 -1.138828E+04 -1.356862E+04
         6   7  1.998637E+05  1.291817E+06  1.235141E+05  4.486534E+05 -5.614668E+04 -6.390201E+04
         6   8  1.121452E+05  8.940577E+05  6.594970E+04  4.104298E+05 -3.493409E+04 -6.236964E+04
         6   9  2.196070E+04  4.955549E+05  6.744069E+03  4.513682E+05 -1.146168E+04 -6.084696E+04
         6  10 -2.136998E+05 -4.754512E+05 -1.779527E+05  4.539631E+05 -3.453365E-10 -6.675986E-10
         6  11 -1.129341E+05 -7.644248E+04 -8.945460E+04  4.130099E+05 -8.142662E-10  3.411953E-10
         6  12 -1.614801E+04  3.203028E+05 -8.636445E+03  4.512264E+05 -2.014043E-10  1.265848E-09
         6  13 -6.899573E+03  4.077967E+05 -2.721317E+04  4.513090E+05 -1.328330E-11 -7.116633E-13
         6  14 -3.896996E+02  4.086884E+05 -1.175414E+04  4.117196E+05  7.410048E-11 -5.236493E-11
         6  15  2.905891E+03  4.079228E+05 -9.498888E+02  4.512970E+05  4.325901E-10 -4.281234E-11
         6  16  1.998593E+05  1.291812E+06  1.235005E+05  4.486505E+05  4.639942E-10  6.877584E-10
         6  17  1.121429E+05  8.940532E+05  6.594012E+04  4.104280E+05  8.273314E-12 -3.708622E-10
         6  18  2.195957E+04  4.955509E+05  6.736873E+03  4.513676E+05  3.840492E-10 -1.258847E-09
         6  19 -2.136964E+05 -4.754502E+05 -1.779464E+05  4.539625E+05  5.605323E+04 -1.330961E+04
         6  20 -1.129326E+05 -7.644156E+04 -8.945128E+04  4.130092E+05  3.481507E+04 -2.350781E+04
         6  21 -1.614757E+04  3.203041E+05 -8.634069E+03  4.512261E+05  1.131488E+04 -3.370348E+04
         6  22 -6.896023E+03  4.077982E+05 -2.720606E+04  4.513101E+05  5.610014E+04  2.526962E+04
         6  23 -3.882929E+02  4.086892E+05 -1.175115E+04  4.117201E+05  3.487468E+04  1.941475E+04
         6  24  2.906080E+03  4.079230E+05 -9.492998E+02  4.512971E+05  1.138828E+04  1.356862E+04
         6  25  1.998637E+05  1.291817E+06  1.235141E+05  4.486534E+05  5.614668E+04  6.390201E+04
         6  26  1.121452E+05  8.940577E+05  6.594970E+04  4.104298E+05  3.493409E+04  6.236964E+04
         6  27  2.196070E+04  4.955549E+05  6.744069E+03  4.513682E+05  1.146168E+04  6.084696E+04
         7   1  4.372419E+04  5.765702E+05  4.047277E+04  4.499229E+05  4.242262E+03  3.458096E+04
         7   2  1.464478E+05  9.680562E+05  1.343403E+05  4.232419E+05  1.750555E+04 -1.886868E+04
         7   3  2.751435E+05  1.373038E+06  2.694229E+05  4.744010E+05  7.269876E+03 -7.234092E+04
         7   4  3.035900E+03  4.095181E+05  3.967847E+03  4.510059E+05  4.167550E+03 -1.363686E+04
         7   5  1.056207E+04  4.066736E+05  1.601929E+04  4.120671E+05  1.750270E+04 -2.191824E+04
         7   6  3.624959E+04  4.093643E+05  3.795787E+04  4.509666E+05  7.331159E+03 -3.018822E+04
         7   7 -3.765300E+04  2.424972E+05 -3.253003E+04  4.520887E+05  4.092656E+03 -6.184189E+04
         7   8 -1.253435E+05 -1.544116E+05 -1.023194E+05  4.009023E+05  1.749997E+04 -2.496508E+04
         7   9 -2.027089E+05 -5.534564E+05 -1.935661E+05  4.275680E+05  7.389332E+03  1.189945E+04
         7  10  4.372385E+04  5.765689E+05  4.047049E+04  4.499227E+05  3.000829E-11 -1.126631E-09
         7  11  1.464474E+05  9.680557E+05  1.343390E+05  4.232422E+05  3.273165E-11 -2.467645E-10
         7  12  2.751421E+05  1.373033E+06  2.694129E+05  4.744015E+05  1.251475E-10  6.197504E-10
         7  13  3.035832E+03  4.095179E+05  3.967464E+03  4.510060E+05  6.031709E-10 -4.259949E-11
         7  14  1.056161E+04  4.066730E+05  1.601781E+04  4.120674E+05  5.242487E-11 -5.451595E-11
         7  15  3.624929E+04  4.093633E+05  3.795606E+04  4.509668E+05  8.447305E-11  1.062613E-11
         7  16 -3.765404E+04  2.424930E+05 -3.253725E+04  4.520889E+05  3.864339E-10  1.092425E-09
         7  17 -1.253440E+05 -1.544124E+05 -1.023211E+05  4.009027E+05  1.839364E-11  2.400526E-10
         7  18 -2.027090E+05 -5.534566E+05 -1.935665E+05  4.275680E+05 -1.440245E-10 -6.255800E-10
         7  19  4.372419E+04  5.765702E+05  4.047277E+04  4.499229E+05 -4.242262E+03 -3.458096E+04
         7  20  1.464478E+05  9.680562E+05  1.343403E+05  4.232419E+05 -1.750555E+04  1.886868E+04
         7  21  2.751435E+05  1.373038E+06  2.694229E+05  4.744010E+05 -7.269876E+03  7.234092E+04
         7  22  3.035900E+03  4.095181E+05  3.967847E+03  4.510059E+05 -4.167550E+03  1.363686E+04
         7  23  1.056207E+04  4.066736E+05  1.601929E+04  4.120671E+05 -1.750270E+04  2.191824E+04
         7  24  3.624959E+04  4.093643E+05  3.795787E+04  4.509666E+05 -7.331159E+03  3.018822E+04
         7  25 -3.765300E+04  2.424972E+05 -3.253003E+04  4.520887E+05 -4.092656E+03  6.184189E+04
         7  26 -1.253435E+05 -1.544116E+05 -1.023194E+05  4.009023E+05 -1.749997E+04  2.496508E+04
         7  27 -2.027089E+05 -5.534564E+05 -1.935661E+05  4.275680E+05 -7.389332E+03 -1.189945E+04
         8   1  4.098948E+05  6.158293E+04 -1.201918E+05  3.326632E+05 -2.563754E+04 -8.232660E+03
         8   2  4.696222E+05  8.858063E+04 -9.314894E+04  3.728068E+05 -2.183726E+04  1.969810E+04
         8   3  5.505661E+05  1.093873E+05 -7.546512E+04  4.021403E+05 -8.598652E+03  3.504965E+04
         8   4  9.349029E+05  3.946090E+05  4.071989E+04  5.747747E+05  1.731702E+04  2.397112E+04
         8   5  9.153985E+05  3.838880E+05  2.030385E+04  5.885953E+05 -3.058084E+03  3.377150E+04
         8   6  9.223394E+05  3.722079E+05  1.148794E+04  5.916044E+05 -1.400132E+04  3.099780E+04
         8   7  1.460199E+06  7.277426E+05  2.016069E+05  8.171008E+05  6.032047E+04  5.620631E+04
         8   8  1.361396E+06  6.792929E+05  1.337412E+05  8.045544E+05  1.573907E+04  4.785727E+04
         8   9  1.294273E+06  6.351137E+05  9.843257E+04  7.812001E+05 -1.940831E+04  2.694269E+04
         8  10  4.098941E+05  6.158268E+04 -1.201931E+05  3.326630E+05 -5.439966E-10 -3.232957E-10
         8  11  4.696216E+05  8.858009E+04 -9.315057E+04  3.728071E+05 -1.058510E-09 -5.759895E-11
         8  12  5.505657E+05  1.093860E+05 -7.546757E+04  4.021406E+05 -9.021419E-10  1.019625E-10
         8  13  9.349024E+05  3.946083E+05  4.071825E+04  5.747744E+05 -2.612085E-10  6.247862E-11
         8  14  9.153982E+05  3.838868E+05  2.030169E+04  5.885954E+05 -4.168243E-10  2.590234E-10
         8  15  9.223390E+05  3.722068E+05  1.148576E+04  5.916048E+05 -8.172536E-10  3.178797E-10
         8  16  1.460194E+06  7.277383E+05  2.015942E+05  8.170981E+05  1.986600E-10  3.755277E-10
         8  17  1.361395E+06  6.792904E+05  1.337365E+05  8.045538E+05 -2.917069E-10  5.921120E-10
         8  18  1.294273E+06  6.351128E+05  9.843050E+04  7.812005E+05  1.304795E-10  5.589068E-10
         8  19  4.098948E+05  6.158293E+04 -1.201918E+05  3.326632E+05  2.563754E+04  8.232660E+03
         8  20  4.696222E+05  8.858063E+04 -9.314894E+04  3.728068E+05  2.183726E+04 -1.969810E+04
         8  21  5.505661E+05  1.093873E+05 -7.546512E+04  4.021403E+05  8.598652E+03 -3.504965E+04
         8  22  9.349029E+05  3.946090E+05  4.071989E+04  5.747747E+05 -1.731702E+04 -2.397112E+04
         8  23  9.153985E+05  3.838880E+05  2.030385E+04  5.885953E+05  3.058084E+03 -3.377150E+04
         8  24  9.223394E+05  3.722079E+05  1.148794E+04  5.916044E+05  1.400132E+04 -3.099780E+04
         8  25  1.460199E+06  7.277426E+05  2.016069E+05  8.171008E+05 -6.032047E+04 -5.620631E+04
         8  26  1.361396E+06  6.792929E+05  1.337412E+05  8.045544E+05 -1.573907E+04 -4.785727E+04
         8  27  1.294273E+06  6.351137E+05  9.843257E+04  7.812001E+05  1.940831E+04 -2.694269E+04
         9   1  5.887078E+05  1.392415E+05 -6.711269E+04  4.226085E+05 -8.933266E+03  3.164361E+04
         9   2  6.432322E+05  1.902764E+05 -5.348637E+04  4.572781E+05 -6.361662E+03  2.864774E+04
         9   3  7.146654E+05  2.253230E+05 -3.983947E+04  4.868413E+05 -2.799957E+03  2.432894E+04
         9   4  9.217212E+05  3.714396E+05  9.003377E+03  5.910396E+05 -1.371787E+04  2.805573E+04
         9   5  9.126247E+05  3.784886E+05  5.851926E+03  5.941079E+05 -1.369011E+04  2.315498E+04
         9   6  9.209802E+05  3.700978E+05  4.923713E+03  5.920658E+05 -1.267262E+04  1.693172E+04
         9   7  1.254871E+06  6.037094E+05  8.511556E+04  7.595784E+05 -1.850599E+04  2.446525E+04
         9   8  1.182103E+06  5.667454E+05  6.518693E+04  7.310067E+05 -2.102280E+04  1.765907E+04
         9   9  1.127341E+06  5.148962E+05  4.968403E+04  6.973290E+05 -2.254945E+04  9.531385E+03
         9  10  5.887075E+05  1.392404E+05 -6.711472E+04  4.226088E+05 -1.971783E-09 -4.653509E-10
         9  11  6.432319E+05  1.902756E+05 -5.348799E+04  4.572783E+05 -1.551058E-09  1.996804E-10
         9  12  7.146652E+05  2.253224E+05 -3.984060E+04  4.868414E+05 -1.164629E-09  2.211821E-10
         9  13  9.217208E+05  3.714387E+05  9.001543E+03  5.910399E+05 -3.189561E-10  5.142792E-10
         9  14  9.126244E+05  3.784880E+05  5.850565E+03  5.941081E+05 -6.736840E-10  7.960173E-10
         9  15  9.209799E+05  3.700974E+05  4.922872E+03  5.920659E+05 -5.079078E-10  6.417468E-10
         9  16  1.254871E+06  6.037087E+05  8.511379E+04  7.595788E+05  1.011694E-09  1.339250E-09
         9  17  1.182102E+06  5.667450E+05  6.518551E+04  7.310070E+05  7.472902E-10  1.404550E-09
         9  18  1.127341E+06  5.148959E+05  4.968291E+04  6.973291E+05  4.026659E-10  1.066639E-09
         9  19  5.887078E+05  1.392415E+05 -6.711269E+04  4.226085E+05  8.933266E+03 -3.164361E+04
         9  20  6.432322E+05  1.902764E+05 -5.348637E+04  4.572781E+05  6.361662E+03 -2.864774E+04
         9  21  7.146654E+05  2.253230E+05 -3.983947E+04  4.868413E+05  2.799957E+03 -2.432894E+04
         9  22  9.217212E+05  3.714396E+05  9.003377E+03  5.910396E+05  1.371787E+04 -2.805573E+04
         9  23  9.126247E+05  3.784886E+05  5.851926E+03  5.941079E+05  1.369011E+04 -2.315498E+04
         9  24  9.209802E+05  3.700978E+05  4.923713E+03  5.920658E+05  1.267262E+04 -1.693172E+04
         9  25  1.254871E+06  6.037094E+05  8.511556E+04  7.595784E+05  1.850599E+04 -2.446525E+04
         9  26  1.182103E+06  5.667454E+05  6.518693E+04  7.310067E+05  2.102280E+04 -1.765907E+04
         9  27  1.127341E+06  5.148962E+05  4.968403E+04  6.973290E+05  2.254945E+04 -9.531385E+03
        10   1  7.543115E+05  2.535604E+05 -3.067643E+04  5.071961E+05 -1.299169E+03  2.071809E+04
        10   2  8.083478E+05  3.056921E+05 -1.559940E+04  5.414657E+05  5.407360E+01  1.372354E+04
        10   3  8.794904E+05  3.416989E+05  1.614355E+03  5.709123E+05  1.447961E+03  6.673137E+03
        10   4  9.209704E+05  3.700599E+05  5.060681E+03  5.920488E+05 -1.110744E+04  1.336989E+04
        10   5  9.124699E+05  3.782198E+05  6.548897E+03  5.943839E+05 -9.862044E+03  6.295238E+03
        10   6  9.210942E+05  3.702754E+05  1.026638E+04  5.918924E+05 -8.575689E+03 -8.350521E+02
        10   7  1.087663E+06  4.865768E+05  4.079717E+04  6.769281E+05 -2.091922E+04  6.019070E+03
        10   8  1.016606E+06  4.507552E+05  2.869770E+04  6.473131E+05 -1.978048E+04 -1.134781E+03
        10   9  9.627011E+05  3.988537E+05  1.891922E+04  6.128747E+05 -1.860044E+04 -8.344047E+03
        10  10  7.543113E+05  2.535600E+05 -3.067724E+04  5.071962E+05 -3.399491E-09 -9.719832E-10
        10  11  8.083478E+05  3.056919E+05 -1.559976E+04  5.414657E+05 -2.160442E-09 -4.170921E-10
        10  12  8.794904E+05  3.416988E+05  1.614267E+03  5.709123E+05 -1.187576E-09 -9.078974E-10
        10  13  9.209703E+05  3.700597E+05  5.060113E+03  5.920489E+05 -1.334173E-10  6.905210E-10
        10  14  9.124698E+05  3.782198E+05  6.548640E+03  5.943840E+05 -1.101732E-09  6.842772E-10
        10  15  9.210941E+05  3.702754E+05  1.026624E+04  5.918924E+05  5.555416E-10 -5.723363E-10
        10  16  1.087662E+06  4.865767E+05  4.079628E+04  6.769282E+05  1.555248E-09  2.438918E-09
        10  17  1.016606E+06  4.507551E+05  2.869697E+04  6.473131E+05  1.101441E-09  1.701320E-09
        10  18  9.627008E+05  3.988536E+05  1.891844E+04  6.128746E+05  1.843957E-09 -2.034447E-10
        10  19  7.543115E+05  2.535604E+05 -3.067643E+04  5.071961E+05  1.299169E+03 -2.071809E+04
        10  20  8.083478E+05  3.056921E+05 -1.559940E+04  5.414657E+05 -5.407360E+01 -1.372354E+04
        10  21  8.794904E+05  3.416989E+05  1.614355E+03  5.709123E+05 -1.447961E+03 -6.673137E+03
        10  22  9.209704E+05  3.700599E+05  5.060681E+03  5.920488E+05  1.110744E+04 -1.336989E+04
        10  23  9.124699E+05  3.782198E+05  6.548897E+03  5.943839E+05  9.862044E+03 -6.295238E+03
        10  24  9.210942E+05  3.702754E+05  1.026638E+04  5.918924E+05  8.575689E+03  8.350521E+02
        10  25  1.087663E+06  4.865768E+05  4.079717E+04  6.769281E+05  2.091922E+04 -6.019070E+03
        10  26  1.016606E+06  4.507552E+05  2.869770E+04  6.473131E+05  1.978048E+04  1.134781E+03
        10  27  9.627011E+05  3.988537E+05  1.891922E+04  6.128747E+05  1.860044E+04  8.344047E+03
        11   1  9.188828E+05  3.706703E+05  1.349179E+04  5.917148E+05  2.155130E+03  2.404269E+03
        11   2  9.758875E+05  4.205850E+05  3.700410E+04  6.233419E+05 -4.811116E+03 -1.036661E+04
        11   3  1.053997E+06  4.594224E+05  7.077735E+04  6.485637E+05 -1.236394E+04 -2.235704E+04
        11   4  9.214291E+05  3.704704E+05  1.320169E+04  5.921785E+05 -7.900202E+03 -5.127563E+03
        11   5  9.129130E+05  3.795155E+05  2.271709E+04  5.928706E+05 -1.336294E+04 -1.677259E+04
        11   6  9.251737E+05  3.771581E+05  4.119324E+04  5.871551E+05 -1.941092E+04 -2.763630E+04
        11   7  9.239756E+05  3.702706E+05  1.291218E+04  5.926423E+05 -1.795538E+04 -1.265922E+04
        11   8  8.499440E+05  3.384487E+05  8.430506E+03  5.624033E+05 -2.191351E+04 -2.317771E+04
        11   9  7.963701E+05  2.949019E+05  1.160844E+04  5.257606E+05 -2.645594E+04 -3.291425E+04
        11  10  9.188828E+05  3.706703E+05  1.349177E+04  5.917148E+05 -6.523502E-08 -5.092968E-08
        11  11  9.758874E+05  4.205849E+05  3.700386E+04  6.233418E+05  7.000034E-09  1.155182E-09
        11  12  1.053996E+06  4.594218E+05  7.077613E+04  6.485635E+05  7.119875E-08  5.005395E-08
        11  13  9.214290E+05  3.704703E+05  1.320153E+04  5.921785E+05  3.577055E-09 -1.782807E-10
        11  14  9.129127E+05  3.795152E+05  2.271623E+04  5.928705E+05  7.257747E-09  1.261455E-09
        11  15  9.251731E+05  3.771571E+05  4.119110E+04  5.871547E+05  3.015264E-09 -5.152075E-11
        11  16  9.239752E+05  3.702703E+05  1.291128E+04  5.926421E+05  7.212686E-08  5.052172E-08
        11  17  8.499433E+05  3.384480E+05  8.428597E+03  5.624029E+05  7.291047E-09  1.443819E-09
        11  18  7.963691E+05  2.949005E+05  1.160510E+04  5.257599E+05 -6.506134E-08 -5.022267E-08
        11  19  9.188828E+05  3.706703E+05  1.349179E+04  5.917148E+05 -2.155130E+03 -2.404269E+03
        11  20  9.758875E+05  4.205850E+05  3.700410E+04  6.233419E+05  4.811116E+03  1.036661E+04
        11  21  1.053997E+06  4.594224E+05  7.077735E+04  6.485637E+05  1.236394E+04  2.235704E+04
        11  22  9.214291E+05  3.704704E+05  1.320169E+04  5.921785E+05  7.900202E+03  5.127563E+03
        11  23  9.129130E+05  3.795155E+05  2.271709E+04  5.928706E+05  1.336294E+04  1.677259E+04
        11  24  9.251737E+05  3.771581E+05  4.119324E+04  5.871551E+05  1.941092E+04  2.763630E+04
        11  25  9.239756E+05  3.702706E+05  1.291218E+04  5.926423E+05  1.795538E+04  1.265922E+04
        11  26  8.499440E+05  3.384487E+05  8.430506E+03  5.624033E+05  2.191351E+04  2.317771E+04
        11  27  7.963701E+05  2.949019E+05  1.160844E+04  5.257606E+05  2.645594E+04  3.291425E+04
        12   1  1.089007E+06  5.000499E+05  9.407000E+04  6.742339E+05 -1.581136E+04 -2.880209E+04
        12   2  1.207441E+06  5.117721E+05  1.603738E+05  6.635250E+05 -7.117538E+04 -7.043312E+04
        12   3  1.398910E+06  5.828543E+05  2.963825E+05  6.169346E+05 -1.321798E+05 -1.045609E+05
        12   4  9.292762E+05  3.800542E+05  5.448620E+04  5.897052E+05 -2.322237E+04 -3.435397E+04
        12   5  9.255406E+05  4.075889E+05  9.970569E+04  5.658925E+05 -6.413328E+04 -6.516943E+04