
 stresses (elem, integ.pnt.,sxx,syy,szz,sxy,sxz,syz) for set ELALL and time  0.1000000E+01

         1   1 -1.825094E+06 -1.834418E+04 -2.141886E+04 -9.846920E+03 -1.476035E+04  2.347719E-01
         1   2 -1.822869E+06 -1.388204E+03 -9.978770E+03 -3.779512E+03 -9.527080E+03  5.816262E-02
         1   3 -1.825077E+06  5.812737E+02 -5.699882E+03  2.288021E+03 -4.293738E+03 -1.586886E-02
         1   4 -1.825094E+06 -1.834436E+04 -2.141889E+04  1.541881E-08 -1.476035E+04  2.807887E-10
         1   5 -1.822869E+06 -1.388231E+03 -9.978774E+03  6.113165E-09 -9.527080E+03  1.040950E-09
         1   6 -1.825077E+06  5.812638E+02 -5.699883E+03  6.455279E-09 -4.293738E+03  1.405223E-09
         1   7 -1.825094E+06 -1.834418E+04 -2.141886E+04  9.846920E+03 -1.476035E+04 -2.347719E-01
         1   8 -1.822869E+06 -1.388204E+03 -9.978770E+03  3.779512E+03 -9.527080E+03 -5.816262E-02
         1   9 -1.825077E+06  5.812737E+02 -5.699882E+03 -2.288021E+03 -4.293738E+03  1.586886E-02
         1  10 -1.825094E+06 -1.834424E+04 -2.141927E+04 -9.846920E+03  6.149583E-10  1.809729E-10
         1  11 -1.822869E+06 -1.388228E+03 -9.978942E+03 -3.779512E+03  9.972429E-10  4.323877E-10
         1  12 -1.825077E+06  5.812687E+02 -5.699917E+03  2.288021E+03  4.213374E-10  2.066416E-10
         1  13 -1.825094E+06 -1.834442E+04 -2.141930E+04  6.956439E-09  1.680295E-11  1.383076E-10
         1  14 -1.822869E+06 -1.388255E+03 -9.978945E+03  6.052262E-09  5.278024E-10  2.712381E-10
         1  15 -1.825077E+06  5.812589E+02 -5.699918E+03 -3.469822E-09  1.010062E-09 -1.773409E-10
         1  16 -1.825094E+06 -1.834424E+04 -2.141927E+04  9.846920E+03 -2.513395E-11  9.059314E-11
         1  17 -1.822869E+06 -1.388228E+03 -9.978942E+03  3.779512E+03 -1.795376E-09  1.070938E-10
         1  18 -1.825077E+06  5.812687E+02 -5.699917E+03 -2.288021E+03  5.494739E-10 -5.120616E-10
         1  19 -1.825094E+06 -1.834418E+04 -2.141886E+04 -9.846920E+03  1.476035E+04 -2.347719E-01
         1  20 -1.822869E+06 -1.388204E+03 -9.978770E+03 -3.779512E+03  9.527080E+03 -5.816262E-02
         1  21 -1.825077E+06  5.812737E+02 -5.699882E+03  2.288021E+03  4.293738E+03  1.586886E-02
         1  22 -1.825094E+06 -1.834436E+04 -2.141889E+04  1.140817E-08  1.476035E+04  6.630075E-12
         1  23 -1.822869E+06 -1.388231E+03 -9.978774E+03  1.705507E-09  9.527080E+03 -5.187689E-10
         1  24 -1.825077E+06  5.812638E+02 -5.699883E+03  5.967991E-09  4.293738E+03 -1.784601E-09
         1  25 -1.825094E+06 -1.834418E+04 -2.141886E+04  9.846920E+03  1.476035E+04  2.347719E-01
         1  26 -1.822869E+06 -1.388204E+03 -9.978770E+03  3.779512E+03  9.527080E+03  5.816262E-02
         1  27 -1.825077E+06  5.812737E+02 -5.699882E+03 -2.288021E+03  4.293738E+03 -1.586886E-02
         2   1 -1.824168E+06 -7.498655E+02 -4.466076E+03 -2.446721E+02 -3.517903E+03  1.390331E-03
         2   2 -1.824002E+06 -1.493498E+01 -2.468517E+03 -4.503221E+01 -2.285636E+03  1.662561E-04
         2   3 -1.824166E+06  4.243575E+01 -1.444371E+03  1.546075E+02 -1.053366E+03 -2.630613E-04
         2   4 -1.824168E+06 -7.498656E+02 -4.466076E+03  7.061489E-09 -3.517903E+03  6.340253E-10
         2   5 -1.824002E+06 -1.493499E+01 -2.468517E+03  6.284079E-09 -2.285636E+03 -4.134725E-10
         2   6 -1.824166E+06  4.243571E+01 -1.444371E+03  3.104154E-09 -1.053366E+03  1.274058E-09
         2   7 -1.824168E+06 -7.498655E+02 -4.466076E+03  2.446721E+02 -3.517903E+03 -1.390330E-03
         2   8 -1.824002E+06 -1.493498E+01 -2.468517E+03  4.503221E+01 -2.285636E+03 -1.662572E-04
         2   9 -1.824166E+06  4.243575E+01 -1.444371E+03 -1.546075E+02 -1.053366E+03  2.630636E-04
         2  10 -1.824168E+06 -7.498689E+02 -4.466099E+03 -2.446721E+02  8.953517E-10 -5.223247E-11
         2  11 -1.824002E+06 -1.493639E+01 -2.468527E+03 -4.503221E+01  2.664950E-10  3.893379E-10
         2  12 -1.824166E+06  4.243546E+01 -1.444373E+03  1.546075E+02 -1.906744E-09  1.675225E-09
         2  13 -1.824168E+06 -7.498690E+02 -4.466099E+03 -1.327438E-09  1.150991E-09 -2.013404E-10
         2  14 -1.824002E+06 -1.493639E+01 -2.468527E+03  1.193013E-09  1.717286E-09  6.025618E-10
         2  15 -1.824166E+06  4.243541E+01 -1.444373E+03  3.705060E-09 -9.298802E-10  1.464534E-09
         2  16 -1.824168E+06 -7.498689E+02 -4.466099E+03  2.446721E+02 -2.732476E-10 -4.390934E-10
         2  17 -1.824002E+06 -1.493639E+01 -2.468527E+03  4.503221E+01 -6.823176E-10  9.060990E-10
         2  18 -1.824166E+06  4.243546E+01 -1.444373E+03 -1.546075E+02  2.033766E-09  1.213574E-09
         2  19 -1.824168E+06 -7.498655E+02 -4.466076E+03 -2.446721E+02  3.517903E+03 -1.390331E-03
         2  20 -1.824002E+06 -1.493498E+01 -2.468517E+03 -4.503221E+01  2.285636E+03 -1.662555E-04
         2  21 -1.824166E+06  4.243575E+01 -1.444371E+03  1.546075E+02  1.053366E+03  2.630648E-04
         2  22 -1.824168E+06 -7.498656E+02 -4.466076E+03  1.037064E-09  3.517903E+03 -1.049415E-09
         2  23 -1.824002E+06 -1.493499E+01 -2.468517E+03 -1.785589E-09  2.285636E+03  1.634716E-09
         2  24 -1.824166E+06  4.243571E+01 -1.444371E+03  1.635001E-08  1.053366E+03  1.699414E-09
         2  25 -1.824168E+06 -7.498655E+02 -4.466076E+03  2.446721E+02  3.517903E+03  1.390329E-03
         2  26 -1.824002E+06 -1.493498E+01 -2.468517E+03  4.503221E+01  2.285636E+03  1.662586E-04
         2  27 -1.824166E+06  4.243575E+01 -1.444371E+03 -1.546075E+02  1.053366E+03 -2.630614E-04
         3   1 -1.824105E+06 -1.530662E+01 -1.124374E+03  3.518971E+01 -8.267394E+02 -4.699096E-05
         3   2 -1.824078E+06  1.318115E+01 -7.045976E+02  2.306834E+01 -4.783182E+02 -1.782233E-05
         3   3 -1.824104E+06  9.167033E+00 -5.202790E+02  1.094715E+01 -1.299021E+02 -2.296716E-06
         3   4 -1.824105E+06 -1.530662E+01 -1.124374E+03  5.251207E-09 -8.267394E+02  1.730144E-09
         3   5 -1.824078E+06  1.318115E+01 -7.045976E+02 -4.763403E-09 -4.783182E+02  5.174999E-10
         3   6 -1.824104E+06  9.167033E+00 -5.202790E+02 -8.184295E-09 -1.299021E+02  2.738108E-10
         3   7 -1.824105E+06 -1.530662E+01 -1.124374E+03 -3.518971E+01 -8.267394E+02  4.699426E-05
         3   8 -1.824078E+06  1.318115E+01 -7.045976E+02 -2.306834E+01 -4.783182E+02  1.782336E-05
         3   9 -1.824104E+06  9.167033E+00 -5.202790E+02 -1.094715E+01 -1.299021E+02  2.297290E-06
         3  10 -1.824105E+06 -1.530680E+01 -1.124376E+03  3.518971E+01 -1.071948E-09  1.552493E-09
         3  11 -1.824078E+06  1.318109E+01 -7.045980E+02  2.306834E+01  1.459541E-09 -8.131142E-11
         3  12 -1.824104E+06  9.167028E+00 -5.202790E+02  1.094715E+01 -3.472758E-09 -5.414895E-10
         3  13 -1.824105E+06 -1.530681E+01 -1.124376E+03  5.674175E-09  1.252311E-10  1.070817E-09
         3  14 -1.824078E+06  1.318109E+01 -7.045980E+02 -3.901459E-09  1.832134E-27 -2.908004E-10
         3  15 -1.824104E+06  9.167028E+00 -5.202790E+02  5.048809E-10 -2.253182E-09 -2.441488E-10
         3  16 -1.824105E+06 -1.530680E+01 -1.124376E+03 -3.518971E+01 -6.363228E-10  6.517459E-10
         3  17 -1.824078E+06  1.318109E+01 -7.045980E+02 -2.306834E+01 -1.658337E-10 -4.460165E-10
         3  18 -1.824104E+06  9.167028E+00 -5.202790E+02 -1.094715E+01  8.639593E-10  2.765463E-11
         3  19 -1.824105E+06 -1.530662E+01 -1.124374E+03  3.518971E+01  8.267394E+02  4.699418E-05
         3  20 -1.824078E+06  1.318115E+01 -7.045976E+02  2.306834E+01  4.783182E+02  1.782225E-05
         3  21 -1.824104E+06  9.167033E+00 -5.202790E+02  1.094715E+01  1.299021E+02  2.295821E-06
         3  22 -1.824105E+06 -1.530662E+01 -1.124374E+03  1.684007E-08  8.267394E+02  4.052467E-10
         3  23 -1.824078E+06  1.318115E+01 -7.045976E+02  7.722312E-09  4.783182E+02 -1.132163E-09
         3  24 -1.824104E+06  9.167033E+00 -5.202790E+02  5.473626E-09  1.299021E+02 -7.133242E-10
         3  25 -1.824105E+06 -1.530662E+01 -1.124374E+03 -3.518971E+01  8.267394E+02 -4.699303E-05
         3  26 -1.824078E+06  1.318115E+01 -7.045976E+02 -2.306834E+01  4.783182E+02 -1.782447E-05
         3  27 -1.824104E+06  9.167033E+00 -5.202790E+02 -1.094715E+01  1.299021E+02 -2.297621E-06
         4   1 -1.824100E+06  6.739433E+00 -4.914012E+02  2.887599E+00 -3.835133E+01 -1.784714E-07
         4   2 -1.824082E+06  1.254271E+01 -5.471968E+02 -1.566042E+01  2.317945E+02 -5.862820E-06
         4   3 -1.824101E+06  1.437228E+01 -7.802499E+02 -3.420872E+01  5.019444E+02 -2.773603E-05
         4   4 -1.824100E+06  6.739433E+00 -4.914012E+02  2.117177E-09 -3.835133E+01  2.974583E-10
         4   5 -1.824082E+06  1.254271E+01 -5.471968E+02 -7.172014E-09  2.317945E+02  1.495325E-10
         4   6 -1.824101E+06  1.437228E+01 -7.802499E+02 -2.878600E-09  5.019444E+02  7.255619E-11
         4   7 -1.824100E+06  6.739433E+00 -4.914012E+02 -2.887599E+00 -3.835133E+01  1.792686E-07
         4   8 -1.824082E+06  1.254271E+01 -5.471968E+02  1.566042E+01  2.317945E+02  5.862992E-06
         4   9 -1.824101E+06  1.437228E+01 -7.802499E+02  3.420872E+01  5.019444E+02  2.773622E-05
         4  10 -1.824100E+06  6.739432E+00 -4.914012E+02  2.887599E+00 -1.831120E-09  8.825056E-11
         4  11 -1.824082E+06  1.254269E+01 -5.471969E+02 -1.566042E+01 -1.762327E-09  7.917554E-10
         4  12 -1.824101E+06  1.437222E+01 -7.802504E+02 -3.420872E+01 -9.924790E-10 -2.337869E-10
         4  13 -1.824100E+06  6.739432E+00 -4.914012E+02 -2.153948E-09 -4.420766E-09  1.255084E-10
         4  14 -1.824082E+06  1.254269E+01 -5.471969E+02  3.696658E-10  2.234797E-09  2.275387E-10
         4  15 -1.824101E+06  1.437221E+01 -7.802504E+02  1.295808E-09 -5.966781E-10  1.728723E-10
         4  16 -1.824100E+06  6.739432E+00 -4.914012E+02 -2.887599E+00 -3.532677E-10  1.798845E-10
         4  17 -1.824082E+06  1.254269E+01 -5.471969E+02  1.566042E+01  7.491070E-10 -1.349821E-10
         4  18 -1.824101E+06  1.437222E+01 -7.802504E+02  3.420872E+01  3.444528E-09  6.784764E-10
         4  19 -1.824100E+06  6.739433E+00 -4.914012E+02  2.887599E+00  3.835133E+01  1.790086E-07
         4  20 -1.824082E+06  1.254271E+01 -5.471968E+02 -1.566042E+01 -2.317945E+02  5.864280E-06
         4  21 -1.824101E+06  1.437228E+01 -7.802499E+02 -3.420872E+01 -5.019444E+02  2.773596E-05
         4  22 -1.824100E+06  6.739433E+00 -4.914012E+02  1.295462E-08  3.835133E+01 -4.856447E-11
         4  23 -1.824082E+06  1.254271E+01 -5.471968E+02 -2.842079E-09 -2.317945E+02  3.046835E-10
         4  24 -1.824101E+06  1.437228E+01 -7.802499E+02  1.218166E-08 -5.019444E+02  2.672277E-10
         4  25 -1.824100E+06  6.739433E+00 -4.914012E+02 -2.887599E+00  3.835133E+01 -1.786725E-07
         4  26 -1.824082E+06  1.254271E+01 -5.471968E+02  1.566042E+01 -2.317945E+02 -5.863592E-06
         4  27 -1.824101E+06  1.437228E+01 -7.802499E+02  3.420872E+01 -5.019444E+02 -2.773526E-05
         5   1 -1.824117E+06  1.417016E+01 -9.814624E+02 -4.193761E+01  6.617284E+02 -4.482737E-05
         5   2 -1.824062E+06  3.652499E+01 -1.632982E+03 -9.370714E+01  1.468100E+03 -2.222188E-04
         5   3 -1.824118E+06  3.867732E+01 -2.815690E+03 -1.454767E+02  2.274471E+03 -5.344711E-04
         5   4 -1.824117E+06  1.417016E+01 -9.814624E+02  5.573762E-08  6.617284E+02 -4.279139E-10
         5   5 -1.824062E+06  3.652497E+01 -1.632982E+03  1.907271E-08  1.468100E+03 -1.222328E-09
         5   6 -1.824118E+06  3.867728E+01 -2.815690E+03 -6.298603E-09  2.274471E+03 -9.918262E-10
         5   7 -1.824117E+06  1.417016E+01 -9.814624E+02  4.193761E+01  6.617284E+02  4.482650E-05
         5   8 -1.824062E+06  3.652499E+01 -1.632982E+03  9.370714E+01  1.468100E+03  2.222160E-04
         5   9 -1.824118E+06  3.867732E+01 -2.815690E+03  1.454767E+02  2.274471E+03  5.344690E-04
         5  10 -1.824117E+06  1.417004E+01 -9.814632E+02 -4.193761E+01 -1.623480E-08 -1.196429E-09
         5  11 -1.824062E+06  3.652441E+01 -1.632986E+03 -9.370714E+01 -8.228967E-09 -1.690506E-09
         5  12 -1.824118E+06  3.867593E+01 -2.815700E+03 -1.454767E+02  3.379376E-09 -1.792425E-09
         5  13 -1.824117E+06  1.417004E+01 -9.814632E+02 -1.907140E-09  1.241027E-09 -4.641769E-10
         5  14 -1.824062E+06  3.652439E+01 -1.632986E+03 -4.580399E-09  2.772875E-09 -1.687729E-09
         5  15 -1.824118E+06  3.867589E+01 -2.815700E+03 -1.872744E-09 -3.667440E-10 -1.682718E-09
         5  16 -1.824117E+06  1.417004E+01 -9.814632E+02  4.193761E+01  1.842156E-08  2.364946E-10
         5  17 -1.824062E+06  3.652441E+01 -1.632986E+03  9.370714E+01  7.988929E-09 -1.619474E-09
         5  18 -1.824118E+06  3.867593E+01 -2.815700E+03  1.454767E+02 -4.001481E-09 -1.516666E-09
         5  19 -1.824117E+06  1.417016E+01 -9.814624E+02 -4.193761E+01 -6.617284E+02  4.482520E-05
         5  20 -1.824062E+06  3.652499E+01 -1.632982E+03 -9.370714E+01 -1.468100E+03  2.222153E-04
         5  21 -1.824118E+06  3.867732E+01 -2.815690E+03 -1.454767E+02 -2.274471E+03  5.344675E-04
         5  22 -1.824117E+06  1.417016E+01 -9.814624E+02 -4.020792E-08 -6.617284E+02 -5.121317E-10
         5  23 -1.824062E+06  3.652497E+01 -1.632982E+03 -1.963034E-08 -1.468100E+03 -2.107889E-09
         5  24 -1.824118E+06  3.867728E+01 -2.815690E+03  1.156826E-08 -2.274471E+03 -2.381947E-09
         5  25 -1.824117E+06  1.417016E+01 -9.814624E+02  4.193761E+01 -6.617284E+02 -4.482624E-05
         5  26 -1.824062E+06  3.652499E+01 -1.632982E+03  9.370714E+01 -1.468100E+03 -2.222197E-04
         5  27 -1.824118E+06  3.867732E+01 -2.815690E+03  1.454767E+02 -2.274471E+03 -5.344725E-04
         6   1 -1.824205E+06  6.109685E+01 -3.701975E+03 -2.175089E+02  2.863053E+03 -1.005903E-03
         6   2 -1.823957E+06  1.155661E+02 -6.430451E+03 -3.093899E+02  6.043841E+03 -3.020427E-03
         6   3 -1.824209E+06 -1.702458E+02 -1.131934E+04 -4.012698E+02  9.224565E+03 -5.979042E-03
         6   4 -1.824205E+06  6.109676E+01 -3.701975E+03 -3.646719E-08  2.863053E+03 -2.870146E-10
         6   5 -1.823957E+06  1.155659E+02 -6.430451E+03 -1.251743E-08  6.043841E+03  8.047120E-10
         6   6 -1.824209E+06 -1.702461E+02 -1.131934E+04  1.208821E-08  9.224565E+03  1.506456E-09
         6   7 -1.824205E+06  6.109685E+01 -3.701975E+03  2.175089E+02  2.863053E+03  1.005902E-03
         6   8 -1.823957E+06  1.155661E+02 -6.430451E+03  3.093899E+02  6.043841E+03  3.020428E-03
         6   9 -1.824209E+06 -1.702458E+02 -1.131934E+04  4.012698E+02  9.224565E+03  5.979045E-03
         6  10 -1.824205E+06  6.109464E+01 -3.701991E+03 -2.175089E+02  1.933318E-08 -8.542751E-10
         6  11 -1.823957E+06  1.155563E+02 -6.430520E+03 -3.093899E+02  9.864861E-09  1.094771E-09
         6  12 -1.824209E+06 -1.702687E+02 -1.131951E+04 -4.012698E+02 -5.922114E-09  1.818589E-09
         6  13 -1.824205E+06  6.109455E+01 -3.701991E+03  1.873535E-09 -3.443698E-09 -8.401902E-10
         6  14 -1.823957E+06  1.155561E+02 -6.430520E+03  4.901249E-09 -2.855192E-09  8.364344E-10
         6  15 -1.824209E+06 -1.702690E+02 -1.131951E+04 -1.218617E-09 -8.985718E-11  1.793678E-09
         6  16 -1.824205E+06  6.109464E+01 -3.701991E+03  2.175089E+02 -1.768367E-08 -7.993221E-10
         6  17 -1.823957E+06  1.155563E+02 -6.430520E+03  3.093899E+02 -1.056770E-08  5.780518E-10
         6  18 -1.824209E+06 -1.702687E+02 -1.131951E+04  4.012698E+02  5.099315E-09  1.621715E-09
         6  19 -1.824205E+06  6.109685E+01 -3.701975E+03 -2.175089E+02 -2.863053E+03  1.005902E-03
         6  20 -1.823957E+06  1.155661E+02 -6.430451E+03 -3.093899E+02 -6.043841E+03  3.020429E-03
         6  21 -1.824209E+06 -1.702458E+02 -1.131934E+04 -4.012698E+02 -9.224565E+03  5.979046E-03
         6  22 -1.824205E+06  6.109676E+01 -3.701975E+03  5.526824E-08 -2.863053E+03 -1.386899E-09
         6  23 -1.823957E+06  1.155659E+02 -6.430451E+03  1.371675E-08 -6.043841E+03  8.957695E-10
         6  24 -1.824209E+06 -1.702461E+02 -1.131934E+04 -8.089327E-09 -9.224565E+03  2.104743E-09
         6  25 -1.824205E+06  6.109685E+01 -3.701975E+03  2.175089E+02 -2.863053E+03 -1.005904E-03
         6  26 -1.823957E+06  1.155661E+02 -6.430451E+03  3.093899E+02 -6.043841E+03 -3.020427E-03
         6  27 -1.824209E+06 -1.702458E+02 -1.131934E+04  4.012698E+02 -9.224565E+03 -5.979042E-03
         7   1 -1.824871E+06  4.406204E+02 -1.485426E+04 -1.663427E+03  1.153120E+04 -3.098333E-02
         7   2 -1.823139E+06 -1.641711E+02 -2.589808E+04  4.608282E+02  2.446130E+04  1.820819E-02
         7   3 -1.824891E+06 -7.946777E+03 -4.717185E+04  2.585135E+03  3.739136E+04  1.561360E-01
         7   4 -1.824871E+06  4.406152E+02 -1.485426E+04 -1.786897E-09  1.153120E+04  1.428108E-09
         7   5 -1.823139E+06 -1.641715E+02 -2.589808E+04 -7.130058E-09  2.446130E+04  1.135732E-09
         7   6 -1.824891E+06 -7.946789E+03 -4.717185E+04 -1.071180E-08  3.739136E+04  1.249342E-09
         7   7 -1.824871E+06  4.406204E+02 -1.485426E+04  1.663427E+03  1.153120E+04  3.098333E-02
         7   8 -1.823139E+06 -1.641711E+02 -2.589808E+04 -4.608282E+02  2.446130E+04 -1.820819E-02
         7   9 -1.824891E+06 -7.946777E+03 -4.717185E+04 -2.585135E+03  3.739136E+04 -1.561360E-01
         7  10 -1.824872E+06  4.405846E+02 -1.485451E+04 -1.663427E+03 -8.617279E-10  1.448069E-09
         7  11 -1.823140E+06 -1.643323E+02 -2.589921E+04  4.608282E+02 -2.098815E-09  7.099517E-10
         7  12 -1.824892E+06 -7.947153E+03 -4.717448E+04  2.585135E+03 -3.969612E-09  1.047335E-09
         7  13 -1.824872E+06  4.405793E+02 -1.485451E+04 -3.360616E-11  1.374908E-09  1.535602E-09
         7  14 -1.823140E+06 -1.643327E+02 -2.589921E+04 -6.230320E-09  4.760563E-09  6.278854E-10
         7  15 -1.824892E+06 -7.947166E+03 -4.717448E+04 -6.760704E-11  1.868234E-09  3.733632E-10
         7  16 -1.824872E+06  4.405846E+02 -1.485451E+04  1.663427E+03  1.383010E-09  1.521922E-09
         7  17 -1.823140E+06 -1.643323E+02 -2.589921E+04 -4.608282E+02  3.657813E-09  4.148467E-10
         7  18 -1.824892E+06 -7.947153E+03 -4.717448E+04 -2.585135E+03  4.369300E-09 -1.475621E-10
         7  19 -1.824871E+06  4.406204E+02 -1.485426E+04 -1.663427E+03 -1.153120E+04  3.098333E-02
         7  20 -1.823139E+06 -1.641711E+02 -2.589808E+04  4.608282E+02 -2.446130E+04 -1.820819E-02
         7  21 -1.824891E+06 -7.946777E+03 -4.717185E+04  2.585135E+03 -3.739136E+04 -1.561360E-01
         7  22 -1.824871E+06  4.406152E+02 -1.485426E+04  1.137178E-08 -1.153120E+04  1.661453E-09
         7  23 -1.823139E+06 -1.641715E+02 -2.589808E+04  8.647355E-09 -2.446130E+04  1.047893E-10
         7  24 -1.824891E+06 -7.946789E+03 -4.717185E+04  1.289926E-08 -3.739136E+04 -4.507093E-10
         7  25 -1.824871E+06  4.406204E+02 -1.485426E+04  1.663427E+03 -1.153120E+04 -3.098333E-02
         7  26 -1.823139E+06 -1.641711E+02 -2.589808E+04 -4.608282E+02 -2.446130E+04  1.820819E-02
         7  27 -1.824891E+06 -7.946777E+03 -4.717185E+04 -2.585135E+03 -3.739136E+04  1.561360E-01
         8   1 -1.834526E+06  6.157993E+03 -6.027885E+04 -2.424809E+04  4.558727E+04 -1.785567E+00
         8   2 -1.811135E+06 -1.470612E+04 -1.056515E+05  4.003965E+04  1.010112E+05  6.532768E+00
         8   3 -1.834691E+06 -1.943266E+05 -2.268656E+05  1.043237E+05  1.564354E+05  2.636103E+01
         8   4 -1.834526E+06  6.156885E+03 -6.027901E+04  6.664949E-08  4.558727E+04  6.316433E-10
         8   5 -1.811136E+06 -1.470914E+04 -1.056519E+05 -4.273830E-10  1.010112E+05 -6.823835E-10
         8   6 -1.834703E+06 -1.943471E+05 -2.268685E+05 -7.113957E-08  1.564354E+05 -4.188025E-10
         8   7 -1.834526E+06  6.157993E+03 -6.027885E+04  2.424809E+04  4.558727E+04  1.785567E+00
         8   8 -1.811135E+06 -1.470612E+04 -1.056515E+05 -4.003965E+04  1.010112E+05 -6.532768E+00
         8   9 -1.834691E+06 -1.943266E+05 -2.268656E+05 -1.043237E+05  1.564354E+05 -2.636103E+01
         8  10 -1.834528E+06  6.157433E+03 -6.028277E+04 -2.424809E+04 -2.223883E-08  3.526383E-10
         8  11 -1.811146E+06 -1.470887E+04 -1.056707E+05  4.003965E+04 -1.041006E-09 -1.186956E-09
         8  12 -1.834717E+06 -1.943332E+05 -2.269117E+05  1.043237E+05  2.003247E-08 -5.822317E-10
         8  13 -1.834529E+06  6.156325E+03 -6.028293E+04 -2.226436E-09  2.768235E-28 -1.542852E-10
         8  14 -1.811147E+06 -1.471189E+04 -1.056712E+05  5.196986E-11  8.075699E-11 -1.143632E-09
         8  15 -1.834729E+06 -1.943537E+05 -2.269147E+05 -2.512414E-09 -1.163551E-09 -4.931541E-10
         8  16 -1.834528E+06  6.157433E+03 -6.028277E+04  2.424809E+04  2.101798E-08 -6.355168E-10
         8  17 -1.811146E+06 -1.470887E+04 -1.056707E+05 -4.003965E+04 -5.463940E-10 -1.178015E-09
         8  18 -1.834717E+06 -1.943332E+05 -2.269117E+05 -1.043237E+05 -1.944565E-08 -4.257974E-10
         8  19 -1.834526E+06  6.157993E+03 -6.027885E+04 -2.424809E+04 -4.558727E+04  1.785567E+00
         8  20 -1.811135E+06 -1.470612E+04 -1.056515E+05  4.003965E+04 -1.010112E+05 -6.532768E+00
         8  21 -1.834691E+06 -1.943266E+05 -2.268656E+05  1.043237E+05 -1.564354E+05 -2.636103E+01
         8  22 -1.834526E+06  6.156885E+03 -6.027901E+04 -5.281935E-08 -4.558727E+04 -9.404612E-10
         8  23 -1.811136E+06 -1.470914E+04 -1.056519E+05  1.616021E-09 -1.010112E+05 -1.609633E-09
         8  24 -1.834703E+06 -1.943471E+05 -2.268685E+05  6.859902E-08 -1.564354E+05 -6.147441E-10
         8  25 -1.834526E+06  6.157993E+03 -6.027885E+04  2.424809E+04 -4.558727E+04 -1.785567E+00
         8  26 -1.811135E+06 -1.470612E+04 -1.056515E+05 -4.003965E+04 -1.010112E+05  6.532768E+00
         8  27 -1.834691E+06 -1.943266E+05 -2.268656E+05 -1.043237E+05 -1.564354E+05  2.636103E+01
         9   1  1.541215E+06  4.764160E+06  1.523028E+06 -9.781255E+05  6.715372E+04  4.070465E+05
         9   2  1.082446E+06  3.619408E+06  1.022867E+06 -7.559854E+05  2.054536E+05  1.732632E+05
         9   3  7.937181E+05  2.551000E+06  7.170992E+05 -8.616337E+05  1.962429E+05 -6.016569E+04
         9   4  1.746897E+05 -7.585888E+05  2.008355E+05 -8.729536E+05  6.773769E+04  1.408373E+05
         9   5  1.802776E+04 -7.789094E+05  9.255082E+04 -7.092596E+05  2.057956E+05  9.280080E+04
         9   6  1.247933E+01 -7.556321E+05  5.068500E+04 -8.733765E+05  1.959127E+05  4.467836E+04
         9   7 -1.193970E+06 -6.253337E+06 -1.123246E+06 -7.686850E+05  6.823599E+04 -1.230314E+05
         9   8 -1.047631E+06 -5.159017E+06 -8.388400E+05 -6.628467E+05  2.061273E+05  1.289557E+04
         9   9 -7.943625E+05 -4.051840E+06 -6.162495E+05 -8.850391E+05  1.955774E+05  1.489760E+05
         9  10  1.541166E+06  4.763982E+06  1.522711E+06 -9.781475E+05 -1.135974E-09 -6.140864E-10
         9  11  1.082393E+06  3.619365E+06  1.022732E+06 -7.560141E+05 -2.915261E-09 -1.398158E-09
         9  12  7.936758E+05  2.550986E+06  7.170201E+05 -8.616243E+05 -7.111104E-10 -1.464897E-09
         9  13  1.746795E+05 -7.586114E+05  2.007895E+05 -8.729613E+05 -1.039108E-10 -3.360376E-11
         9  14  1.797995E+04 -7.789300E+05  9.245496E+04 -7.092750E+05 -1.729861E-09  2.909895E-11
         9  15 -2.927556E+01 -7.556446E+05  5.060908E+04 -8.733836E+05 -2.005826E-09  2.265816E-11
         9  16 -1.193979E+06 -6.253355E+06 -1.123283E+06 -7.686783E+05 -6.772538E-10  7.363907E-10
         9  17 -1.047677E+06 -5.159029E+06 -8.389201E+05 -6.628488E+05  9.455641E-10  1.303523E-09
         9  18 -7.944096E+05 -4.051874E+06 -6.163636E+05 -8.850626E+05  1.741523E-10  1.573142E-09
         9  19  1.541215E+06  4.764160E+06  1.523028E+06 -9.781255E+05 -6.715372E+04 -4.070465E+05
         9  20  1.082446E+06  3.619408E+06  1.022867E+06 -7.559854E+05 -2.054536E+05 -1.732632E+05
         9  21  7.937181E+05  2.551000E+06  7.170992E+05 -8.616337E+05 -1.962429E+05  6.016569E+04
         9  22  1.746897E+05 -7.585888E+05  2.008355E+05 -8.729536E+05 -6.773769E+04 -1.408373E+05
         9  23  1.802776E+04 -7.789094E+05  9.255082E+04 -7.092596E+05 -2.057956E+05 -9.280080E+04
         9  24  1.247933E+01 -7.556321E+05  5.068500E+04 -8.733765E+05 -1.959127E+05 -4.467836E+04
         9  25 -1.193970E+06 -6.253337E+06 -1.123246E+06 -7.686850E+05 -6.823599E+04  1.230314E+05
         9  26 -1.047631E+06 -5.159017E+06 -8.388400E+05 -6.628467E+05 -2.061273E+05 -1.289557E+04
         9  27 -7.943625E+05 -4.051840E+06 -6.162495E+05 -8.850391E+05 -1.955774E+05 -1.489760E+05
        10   1  6.166157E+05  1.752662E+06  5.455557E+05 -8.839585E+05  1.487665E+05 -3.470608E+04
        10   2  3.434854E+05  6.457529E+05  2.958499E+05 -7.117484E+05  8.869102E+04 -4.767792E+04
        10   3  7.729539E+04 -4.587236E+05  5.564318E+04 -8.756716E+05  2.446771E+04 -6.072912E+04
        10   4  1.189964E+04 -7.642879E+05  3.748772E+04 -8.751518E+05  1.484968E+05  3.779814E+04
        10   5  5.398404E+03 -7.639971E+05  1.528956E+04 -7.070836E+05  8.835076E+04  2.999014E+04
        10   6  5.023976E+03 -7.633117E+05 -9.308885E+02 -8.751903E+05  2.404885E+04  2.208056E+04
        10   7 -5.932060E+05 -3.275198E+06 -4.708871E+05 -8.663712E+05  1.482285E+05  1.100144E+05
        10   8 -3.328069E+05 -2.171835E+06 -2.653474E+05 -7.024265E+05  8.801119E+04  1.074855E+05
        10   9 -6.724908E+04 -1.067795E+06 -5.748308E+04 -8.747090E+05  2.362998E+04  1.048506E+05
        10  10  6.165916E+05  1.752655E+06  5.455119E+05 -8.839544E+05 -2.446091E-09  7.882307E-10
        10  11  3.434763E+05  6.457484E+05  2.958309E+05 -7.117450E+05  1.756647E-09 -9.197922E-10
        10  12  7.729376E+04 -4.587277E+05  5.563513E+04 -8.756704E+05 -1.558976E-09 -1.661440E-09
        10  13  1.187558E+04 -7.642954E+05  3.744357E+04 -8.751564E+05 -2.157076E-09  8.258510E-11
        10  14  5.389778E+03 -7.640002E+05  1.527319E+04 -7.070857E+05 -7.447324E-10  1.847815E-10
        10  15  5.023223E+03 -7.633124E+05 -9.328959E+02 -8.751907E+05 -2.545175E-10  1.762560E-10
        10  16 -5.932329E+05 -3.275217E+06 -4.709513E+05 -8.663843E+05 -2.470909E-09 -7.192101E-10
        10  17 -3.328183E+05 -2.171850E+06 -2.653838E+05 -7.024341E+05 -4.667486E-10  8.493739E-10
        10  18 -6.725264E+04 -1.067807E+06 -5.750484E+04 -8.747110E+05 -2.418246E-09  1.864351E-09
        10  19  6.166157E+05  1.752662E+06  5.455557E+05 -8.839585E+05 -1.487665E+05  3.470608E+04
        10  20  3.434854E+05  6.457529E+05  2.958499E+05 -7.117484E+05 -8.869102E+04  4.767792E+04
        10  21  7.729539E+04 -4.587236E+05  5.564318E+04 -8.756716E+05 -2.446771E+04  6.072912E+04
        10  22  1.189964E+04 -7.642879E+05  3.748772E+04 -8.751518E+05 -1.484968E+05 -3.779814E+04
        10  23  5.398404E+03 -7.639971E+05  1.528956E+04 -7.070836E+05 -8.835076E+04 -2.999014E+04
        10  24  5.023976E+03 -7.633117E+05 -9.308885E+02 -8.751903E+05 -2.404885E+04 -2.208056E+04
        10  25 -5.932060E+05 -3.275198E+06 -4.708871E+05 -8.663712E+05 -1.482285E+05 -1.100144E+05
        10  26 -3.328069E+05 -2.171835E+06 -2.653474E+05 -7.024265E+05 -8.801119E+04 -1.074855E+05
        10  27 -6.724908E+04 -1.067795E+06 -5.748308E+04 -8.747090E+05 -2.362998E+04 -1.048506E+05
        11   1 -1.080806E+05 -1.247595E+06 -1.111782E+05 -8.654314E+05 -2.115662E+04 -7.606116E+04
        11   2 -3.858211E+05 -2.337070E+06 -3.719904E+05 -7.157065E+05 -6.202411E+04  3.421545E+04
        11   3 -7.218644E+05 -3.456412E+06 -7.200036E+05 -8.985058E+05 -2.578242E+04  1.445231E+05
        11   4  8.904546E+03 -7.665860E+05 -8.282487E+03 -8.743209E+05 -2.165145E+04  2.219969E+04
        11   5 -1.012597E+03 -7.600320E+05 -2.729825E+04 -7.081932E+05 -6.202217E+04  3.650915E+04
        11   6 -5.237694E+04 -7.677062E+05 -6.664924E+04 -8.745638E+05 -2.536690E+04  5.104938E+04
        11   7  1.258800E+05 -2.853377E+05  9.463619E+04 -8.832171E+05 -2.214885E+04  1.205357E+05
        11   8  3.836303E+05  8.193430E+05  3.172437E+05 -7.006566E+05 -6.202017E+04  3.880853E+04
        11   9  6.165855E+05  1.927649E+06  5.862154E+05 -8.505060E+05 -2.495977E+04 -4.283015E+04
        11  10 -1.080826E+05 -1.247602E+06 -1.111899E+05 -8.654327E+05 -1.263704E-09  1.735307E-09
        11  11 -3.858256E+05 -2.337072E+06 -3.719998E+05 -7.157048E+05  4.487618E-11  7.614787E-10
        11  12 -7.218707E+05 -3.456435E+06 -7.200443E+05 -8.985028E+05 -3.650374E-10 -3.425692E-10
        11  13  8.903911E+03 -7.665867E+05 -8.284291E+03 -8.743205E+05  1.991316E-10  1.477170E-10
        11  14 -1.017080E+03 -7.600345E+05 -2.730797E+04 -7.081913E+05 -5.575690E-10  7.595158E-11
        11  15 -5.237833E+04 -7.677092E+05 -6.665535E+04 -8.745628E+05 -4.061376E-10 -3.297527E-11
        11  16  1.258755E+05 -2.853534E+05  9.460797E+04 -8.832149E+05 -9.892399E-10 -1.706010E-09
        11  17  3.836257E+05  8.193403E+05  3.172337E+05 -7.006547E+05  9.609942E-10 -8.149819E-10
        11  18  6.165844E+05  1.927647E+06  5.862108E+05 -8.505068E+05  8.099467E-10  3.417601E-10
        11  19 -1.080806E+05 -1.247595E+06 -1.111782E+05 -8.654314E+05  2.115662E+04  7.606116E+04
        11  20 -3.858211E+05 -2.337070E+06 -3.719904E+05 -7.157065E+05  6.202411E+04 -3.421545E+04
        11  21 -7.218644E+05 -3.456412E+06 -7.200036E+05 -8.985058E+05  2.578242E+04 -1.445231E+05
        11  22  8.904546E+03 -7.665860E+05 -8.282487E+03 -8.743209E+05  2.165145E+04 -2.219969E+04
        11  23 -1.012597E+03 -7.600320E+05 -2.729825E+04 -7.081932E+05  6.202217E+04 -3.650915E+04
        11  24 -5.237694E+04 -7.677062E+05 -6.664924E+04 -8.745638E+05  2.536690E+04 -5.104938E+04
        11  25  1.258800E+05 -2.853377E+05  9.463619E+04 -8.832171E+05  2.214885E+04 -1.205357E+05
        11  26  3.836303E+05  8.193430E+05  3.172437E+05 -7.006566E+05  6.202017E+04 -3.880853E+04
        11  27  6.165855E+05  1.927649E+06  5.862154E+05 -8.505060E+05  2.495977E+04  4.283015E+04
        12   1 -2.288507E+06 -5.378895E+05 -1.934492E+05 -8.972448E+05 -1.265599E+05 -4.827772E+04
        12   2 -2.273806E+06 -3.476191E+05 -7.850645E+04 -8.957619E+05 -7.906415E+04 -3.277647E+04
        12   3 -2.312563E+06 -2.965346E+05 -3.550128E+04 -8.640225E+05 -3.187438E+04 -1.645513E+04
        12   4 -2.381626E+06 -4.918615E+05 -2.023198E+05 -8.391011E+05 -1.291441E+05 -4.926769E+04
        12   5 -2.343624E+06 -3.433757E+05 -8.954102E+04 -8.837348E+05 -8.078394E+04 -3.342635E+04