
 stresses (elem, integ.pnt.,sxx,syy,szz,sxy,sxz,syz) for set ELALL and time  0.1000000E+01

         1   1 -2.391242E+06 -1.239873E+05 -1.510912E+05 -5.398335E+04 -1.035223E+05  9.034764E+00
         1   2 -2.372754E+06  5.471335E+03 -6.799094E+04 -1.786052E+04 -6.732846E+04  1.944060E+00
         1   3 -2.391094E+06  6.656346E+03 -4.058654E+04  1.826419E+04 -3.113434E+04 -9.193272E-01
         1   4 -2.391246E+06 -1.239928E+05 -1.510920E+05  2.196420E-10 -1.035223E+05  6.037089E-11
         1   5 -2.372755E+06  5.470733E+03 -6.799102E+04 -8.757017E-10 -6.732846E+04 -1.499625E-10
         1   6 -2.391094E+06  6.655717E+03 -4.058663E+04  1.632193E-08 -3.113434E+04 -1.011980E-09
         1   7 -2.391242E+06 -1.239873E+05 -1.510912E+05  5.398335E+04 -1.035223E+05 -9.034764E+00
         1   8 -2.372754E+06  5.471335E+03 -6.799094E+04  1.786052E+04 -6.732846E+04 -1.944060E+00
         1   9 -2.391094E+06  6.656346E+03 -4.058654E+04 -1.826419E+04 -3.113434E+04  9.193272E-01
         1  10 -2.391254E+06 -1.239902E+05 -1.511114E+05 -5.398335E+04  2.934014E-10  2.151118E-10
         1  11 -2.372759E+06  5.470112E+03 -6.799949E+04 -1.786052E+04 -5.867722E-10  2.584085E-10
         1  12 -2.391095E+06  6.656085E+03 -4.058836E+04  1.826419E+04 -1.212565E-09 -8.214573E-10
         1  13 -2.391257E+06 -1.239957E+05 -1.511122E+05 -1.273937E-08 -1.679510E-11 -9.452573E-11
         1  14 -2.372760E+06  5.469510E+03 -6.799957E+04  1.199614E-08 -1.089217E-09 -4.727006E-10
         1  15 -2.391095E+06  6.655456E+03 -4.058845E+04  1.095051E-08  1.368208E-09 -6.061192E-10
         1  16 -2.391254E+06 -1.239902E+05 -1.511114E+05  5.398335E+04  3.361001E-10 -5.002313E-10
         1  17 -2.372759E+06  5.470112E+03 -6.799949E+04  1.786052E+04 -2.091286E-09 -1.133575E-09
         1  18 -2.391095E+06  6.656085E+03 -4.058836E+04 -1.826419E+04  1.702749E-09 -3.323177E-10
         1  19 -2.391242E+06 -1.239873E+05 -1.510912E+05 -5.398335E+04  1.035223E+05 -9.034764E+00
         1  20 -2.372754E+06  5.471335E+03 -6.799094E+04 -1.786052E+04  6.732846E+04 -1.944060E+00
         1  21 -2.391094E+06  6.656346E+03 -4.058654E+04  1.826419E+04  3.113434E+04  9.193272E-01
         1  22 -2.391246E+06 -1.239928E+05 -1.510920E+05 -4.212016E-09  1.035223E+05 -2.740500E-10
         1  23 -2.372755E+06  5.470733E+03 -6.799102E+04  7.664897E-09  6.732846E+04 -6.163994E-10
         1  24 -2.391094E+06  6.655717E+03 -4.058663E+04  2.490858E-08  3.113434E+04 -2.137957E-10
         1  25 -2.391242E+06 -1.239873E+05 -1.510912E+05  5.398335E+04  1.035223E+05  9.034764E+00
         1  26 -2.372754E+06  5.471335E+03 -6.799094E+04  1.786052E+04  6.732846E+04  1.944060E+00
         1  27 -2.391094E+06  6.656346E+03 -4.058654E+04 -1.826419E+04  3.113434E+04 -9.193272E-01
         2   1 -2.383681E+06 -8.243325E+03 -3.252403E+04 -2.852476E+03 -2.524565E+04  1.164216E-01
         2   2 -2.381999E+06  5.175868E+02 -1.735567E+04 -6.968896E+02 -1.650031E+04  1.859005E-02
         2   3 -2.383662E+06  4.770251E+02 -1.009731E+04  1.458687E+03 -7.754882E+03 -1.828787E-02
         2   4 -2.383681E+06 -8.243341E+03 -3.252404E+04  7.698361E-09 -2.524565E+04 -2.854078E-10
         2   5 -2.381999E+06  5.175859E+02 -1.735567E+04  3.883791E-09 -1.650031E+04  1.096290E-09
         2   6 -2.383662E+06  4.770211E+02 -1.009731E+04 -7.985656E-09 -7.754882E+03 -1.189092E-09
         2   7 -2.383681E+06 -8.243325E+03 -3.252403E+04  2.852476E+03 -2.524565E+04 -1.164216E-01
         2   8 -2.381999E+06  5.175868E+02 -1.735567E+04  6.968896E+02 -1.650031E+04 -1.859005E-02
         2   9 -2.383662E+06  4.770251E+02 -1.009731E+04 -1.458687E+03 -7.754882E+03  1.828786E-02
         2  10 -2.383682E+06 -8.243497E+03 -3.252524E+04 -2.852476E+03 -2.575595E-09 -9.802713E-10
         2  11 -2.381999E+06  5.175134E+02 -1.735618E+04 -6.968896E+02  1.315337E-09  2.392736E-10
         2  12 -2.383662E+06  4.770089E+02 -1.009742E+04  1.458687E+03 -5.549560E-10  4.766125E-10
         2  13 -2.383682E+06 -8.243513E+03 -3.252524E+04  7.860012E-09 -1.930121E-09 -2.375180E-10
         2  14 -2.381999E+06  5.175125E+02 -1.735618E+04 -2.565582E-09 -2.051048E-09  4.690336E-10
         2  15 -2.383662E+06  4.770049E+02 -1.009742E+04  5.249493E-09 -4.202802E-10  8.649717E-11
         2  16 -2.383682E+06 -8.243497E+03 -3.252524E+04  2.852476E+03  1.054100E-09  5.928626E-10
         2  17 -2.381999E+06  5.175134E+02 -1.735618E+04  6.968896E+02  2.615032E-09  6.836351E-10
         2  18 -2.383662E+06  4.770089E+02 -1.009742E+04 -1.458687E+03  2.165481E-09 -2.849775E-10
         2  19 -2.383681E+06 -8.243325E+03 -3.252403E+04 -2.852476E+03  2.524565E+04 -1.164216E-01
         2  20 -2.381999E+06  5.175868E+02 -1.735567E+04 -6.968896E+02  1.650031E+04 -1.859005E-02
         2  21 -2.383662E+06  4.770251E+02 -1.009731E+04  1.458687E+03  7.754882E+03  1.828787E-02
         2  22 -2.383681E+06 -8.243341E+03 -3.252404E+04  1.024704E-08  2.524565E+04 -1.393404E-10
         2  23 -2.381999E+06  5.175859E+02 -1.735567E+04  8.202292E-09  1.650031E+04 -8.069231E-11
         2  24 -2.383662E+06  4.770211E+02 -1.009731E+04  1.315113E-08  7.754882E+03  1.379437E-09
         2  25 -2.383681E+06 -8.243325E+03 -3.252403E+04  2.852476E+03  2.524565E+04  1.164216E-01
         2  26 -2.381999E+06  5.175868E+02 -1.735567E+04  6.968896E+02  1.650031E+04  1.859005E-02
         2  27 -2.383662E+06  4.770251E+02 -1.009731E+04 -1.458687E+03  7.754882E+03 -1.828787E-02
         3   1 -2.383017E+06 -5.031208E+02 -7.795424E+03  1.210663E+01 -6.183888E+03 -1.210362E-04
         3   2 -2.382795E+06  7.220834E+01 -4.452941E+03  7.814196E+01 -3.974085E+03 -5.020501E-04
         3   3 -2.383014E+06  3.981182E+01 -2.705158E+03  1.441762E+02 -1.764308E+03 -4.112384E-04
         3   4 -2.383017E+06 -5.031208E+02 -7.795424E+03 -1.318028E-08 -6.183888E+03 -1.633576E-09
         3   5 -2.382795E+06  7.220833E+01 -4.452941E+03 -4.734405E-09 -3.974085E+03  1.352671E-10
         3   6 -2.383014E+06  3.981178E+01 -2.705158E+03  1.862164E-09 -1.764308E+03 -8.642354E-11
         3   7 -2.383017E+06 -5.031208E+02 -7.795424E+03 -1.210663E+01 -6.183888E+03  1.210329E-04
         3   8 -2.382795E+06  7.220834E+01 -4.452941E+03 -7.814196E+01 -3.974085E+03  5.020501E-04
         3   9 -2.383014E+06  3.981182E+01 -2.705158E+03 -1.441762E+02 -1.764308E+03  4.112387E-04
         3  10 -2.383018E+06 -5.031312E+02 -7.795496E+03  1.210663E+01 -2.395943E-09 -1.555147E-10
         3  11 -2.382795E+06  7.220408E+01 -4.452971E+03  7.814196E+01 -1.751850E-09 -8.057121E-10
         3  12 -2.383014E+06  3.981098E+01 -2.705164E+03  1.441762E+02 -1.175038E-09 -6.209939E-10
         3  13 -2.383018E+06 -5.031312E+02 -7.795496E+03 -3.025762E-10 -9.885102E-10 -3.459124E-10
         3  14 -2.382795E+06  7.220407E+01 -4.452971E+03 -4.033461E-10 -4.015238E-27 -3.209553E-10
         3  15 -2.383014E+06  3.981094E+01 -2.705164E+03  1.698150E-09 -4.539271E-09 -4.142423E-11
         3  16 -2.383018E+06 -5.031312E+02 -7.795496E+03 -1.210663E+01  4.865415E-09 -4.246147E-10
         3  17 -2.382795E+06  7.220408E+01 -4.452971E+03 -7.814196E+01  1.398781E-09  1.306607E-10
         3  18 -2.383014E+06  3.981098E+01 -2.705164E+03 -1.441762E+02 -7.718789E-10  5.117836E-10
         3  19 -2.383017E+06 -5.031208E+02 -7.795424E+03  1.210663E+01  6.183888E+03  1.210357E-04
         3  20 -2.382795E+06  7.220834E+01 -4.452941E+03  7.814196E+01  3.974085E+03  5.020486E-04
         3  21 -2.383014E+06  3.981182E+01 -2.705158E+03  1.441762E+02  1.764308E+03  4.112375E-04
         3  22 -2.383017E+06 -5.031208E+02 -7.795424E+03  1.684952E-08  6.183888E+03  9.590406E-10
         3  23 -2.382795E+06  7.220833E+01 -4.452941E+03  1.684321E-08  3.974085E+03 -8.946580E-10
         3  24 -2.383014E+06  3.981178E+01 -2.705158E+03  6.359074E-09  1.764308E+03 -5.979989E-11
         3  25 -2.383017E+06 -5.031208E+02 -7.795424E+03 -1.210663E+01  6.183888E+03 -1.210340E-04
         3  26 -2.382795E+06  7.220834E+01 -4.452941E+03 -7.814196E+01  3.974085E+03 -5.020504E-04
         3  27 -2.383014E+06  3.981182E+01 -2.705158E+03 -1.441762E+02  1.764308E+03 -4.112380E-04
         4   1 -2.382941E+06 -1.823534E+01 -2.176742E+03  4.406314E+01 -1.325377E+03 -9.441448E-05
         4   2 -2.382884E+06  1.938435E+01 -1.570282E+03  1.846184E+01 -5.495328E+02 -1.640083E-05
         4   3 -2.382941E+06  8.367711E+00 -1.482550E+03 -7.139822E+00  2.263238E+02 -2.611665E-06
         4   4 -2.382941E+06 -1.823534E+01 -2.176742E+03  5.363780E-09 -1.325377E+03  4.803551E-11
         4   5 -2.382884E+06  1.938435E+01 -1.570282E+03  1.952008E-08 -5.495328E+02  8.845687E-10
         4   6 -2.382941E+06  8.367710E+00 -1.482550E+03  8.919269E-09  2.263238E+02  3.794767E-10
         4   7 -2.382941E+06 -1.823534E+01 -2.176742E+03 -4.406314E+01 -1.325377E+03  9.441490E-05
         4   8 -2.382884E+06  1.938435E+01 -1.570282E+03 -1.846184E+01 -5.495328E+02  1.640248E-05
         4   9 -2.382941E+06  8.367711E+00 -1.482550E+03  7.139822E+00  2.263238E+02  2.612820E-06
         4  10 -2.382941E+06 -1.823581E+01 -2.176746E+03  4.406314E+01 -1.647757E-09 -1.709192E-10
         4  11 -2.382884E+06  1.938427E+01 -1.570283E+03  1.846184E+01  1.085810E-09  3.036287E-10
         4  12 -2.382941E+06  8.367697E+00 -1.482550E+03 -7.139822E+00 -5.849605E-10  4.533757E-10
         4  13 -2.382941E+06 -1.823581E+01 -2.176746E+03 -3.224847E-09 -4.310670E-09  4.878666E-11
         4  14 -2.382884E+06  1.938426E+01 -1.570283E+03  2.334435E-09 -4.734028E-09  7.189833E-11
         4  15 -2.382941E+06  8.367697E+00 -1.482550E+03 -5.025963E-09 -1.459290E-09  3.279206E-10
         4  16 -2.382941E+06 -1.823581E+01 -2.176746E+03 -4.406314E+01 -2.881254E-09  1.366078E-10
         4  17 -2.382884E+06  1.938427E+01 -1.570283E+03 -1.846184E+01 -1.069263E-09 -8.329267E-11
         4  18 -2.382941E+06  8.367697E+00 -1.482550E+03  7.139822E+00 -1.126383E-09  1.964029E-10
         4  19 -2.382941E+06 -1.823534E+01 -2.176742E+03  4.406314E+01  1.325377E+03  9.441547E-05
         4  20 -2.382884E+06  1.938435E+01 -1.570282E+03  1.846184E+01  5.495328E+02  1.640173E-05
         4  21 -2.382941E+06  8.367711E+00 -1.482550E+03 -7.139822E+00 -2.263238E+02  2.612715E-06
         4  22 -2.382941E+06 -1.823534E+01 -2.176742E+03 -7.537006E-09  1.325377E+03  5.598554E-11
         4  23 -2.382884E+06  1.938435E+01 -1.570282E+03  2.338633E-09  5.495328E+02 -6.684838E-10
         4  24 -2.382941E+06  8.367710E+00 -1.482550E+03  4.672194E-09 -2.263238E+02  2.387764E-10
         4  25 -2.382941E+06 -1.823534E+01 -2.176742E+03 -4.406314E+01  1.325377E+03 -9.441468E-05
         4  26 -2.382884E+06  1.938435E+01 -1.570282E+03 -1.846184E+01  5.495328E+02 -1.640327E-05
         4  27 -2.382941E+06  8.367711E+00 -1.482550E+03  7.139822E+00 -2.263238E+02 -2.612490E-06
         5   1 -2.382952E+06  9.577467E+00 -1.609195E+03 -2.660963E+01  5.058143E+02 -2.176011E-05
         5   2 -2.382870E+06  2.828602E+01 -2.255142E+03 -5.977245E+01  1.620301E+03 -1.565766E-04
         5   3 -2.382954E+06 -3.506941E+01 -3.649272E+03 -9.293530E+01  2.734786E+03 -4.108933E-04
         5   4 -2.382952E+06  9.577466E+00 -1.609195E+03  1.081818E-08  5.058143E+02 -5.144247E-10
         5   5 -2.382870E+06  2.828602E+01 -2.255142E+03 -5.661027E-09  1.620301E+03 -1.005052E-09
         5   6 -2.382954E+06 -3.506942E+01 -3.649272E+03  5.584126E-09  2.734786E+03  4.410857E-10
         5   7 -2.382952E+06  9.577467E+00 -1.609195E+03  2.660963E+01  5.058143E+02  2.175942E-05
         5   8 -2.382870E+06  2.828602E+01 -2.255142E+03  5.977245E+01  1.620301E+03  1.565740E-04
         5   9 -2.382954E+06 -3.506941E+01 -3.649272E+03  9.293530E+01  2.734786E+03  4.108947E-04
         5  10 -2.382952E+06  9.577398E+00 -1.609196E+03 -2.660963E+01  3.109982E-10 -6.209018E-11
         5  11 -2.382870E+06  2.828532E+01 -2.255147E+03 -5.977245E+01 -8.313461E-10 -8.102216E-10
         5  12 -2.382954E+06 -3.507142E+01 -3.649286E+03 -9.293530E+01 -2.666163E-09 -4.195668E-10
         5  13 -2.382952E+06  9.577397E+00 -1.609196E+03 -1.007725E-10 -3.113214E-09  3.451637E-11
         5  14 -2.382870E+06  2.828531E+01 -2.255147E+03 -2.687267E-10 -1.506220E-09 -4.586313E-10
         5  15 -2.382954E+06 -3.507144E+01 -3.649286E+03  1.731996E-09 -3.765668E-09  1.258637E-10
         5  16 -2.382952E+06  9.577398E+00 -1.609196E+03  2.660963E+01 -1.978748E-09  2.057009E-10
         5  17 -2.382870E+06  2.828532E+01 -2.255147E+03  5.977245E+01 -1.545796E-09 -4.386394E-10
         5  18 -2.382954E+06 -3.507142E+01 -3.649286E+03  9.293530E+01 -7.633836E-10  2.946179E-10
         5  19 -2.382952E+06  9.577467E+00 -1.609195E+03 -2.660963E+01 -5.058143E+02  2.176046E-05
         5  20 -2.382870E+06  2.828602E+01 -2.255142E+03 -5.977245E+01 -1.620301E+03  1.565749E-04
         5  21 -2.382954E+06 -3.506941E+01 -3.649272E+03 -9.293530E+01 -2.734786E+03  4.108929E-04
         5  22 -2.382952E+06  9.577466E+00 -1.609195E+03  8.355589E-09 -5.058143E+02  5.902301E-10
         5  23 -2.382870E+06  2.828602E+01 -2.255142E+03 -1.208308E-08 -1.620301E+03 -9.632280E-11
         5  24 -2.382954E+06 -3.506942E+01 -3.649272E+03  4.068628E-09 -2.734786E+03 -2.215083E-10
         5  25 -2.382952E+06  9.577467E+00 -1.609195E+03  2.660963E+01 -5.058143E+02 -2.175973E-05
         5  26 -2.382870E+06  2.828602E+01 -2.255142E+03  5.977245E+01 -1.620301E+03 -1.565754E-04
         5  27 -2.382954E+06 -3.506941E+01 -3.649272E+03  9.293530E+01 -2.734786E+03 -4.108937E-04
         6   1 -2.383095E+06  7.084766E+01 -4.714470E+03 -2.766033E+02  3.486289E+03 -1.559000E-03
         6   2 -2.382697E+06  1.314971E+02 -8.060856E+03 -1.508330E+02  7.487043E+03 -1.825710E-03
         6   3 -2.383102E+06 -9.291217E+02 -1.429965E+04 -2.506412E+01  1.148771E+04 -4.654904E-04
         6   4 -2.383095E+06  7.084751E+01 -4.714470E+03  1.807121E-10  3.486289E+03  9.675016E-10
         6   5 -2.382697E+06  1.314971E+02 -8.060856E+03 -1.426413E-08  7.487043E+03  9.634671E-11
         6   6 -2.383102E+06 -9.291217E+02 -1.429965E+04 -2.331565E-09  1.148771E+04  6.789492E-11
         6   7 -2.383095E+06  7.084766E+01 -4.714470E+03  2.766033E+02  3.486289E+03  1.559001E-03
         6   8 -2.382697E+06  1.314971E+02 -8.060856E+03  1.508330E+02  7.487043E+03  1.825710E-03
         6   9 -2.383102E+06 -9.291217E+02 -1.429965E+04  2.506412E+01  1.148771E+04  4.654909E-04
         6  10 -2.383095E+06  7.084438E+01 -4.714493E+03 -2.766033E+02 -5.517922E-10  2.583161E-10
         6  11 -2.382697E+06  1.314820E+02 -8.060962E+03 -1.508330E+02 -3.233484E-09  4.892190E-10
         6  12 -2.383102E+06 -9.291573E+02 -1.429990E+04 -2.506412E+01 -4.295785E-10 -3.970534E-11
         6  13 -2.383095E+06  7.084423E+01 -4.714493E+03 -2.027858E-09 -4.451814E-09  4.998308E-10
         6  14 -2.382697E+06  1.314820E+02 -8.060962E+03 -3.356532E-10 -7.868096E-10  2.016287E-10
         6  15 -2.383102E+06 -9.291573E+02 -1.429990E+04 -7.259394E-09  3.301736E-09 -3.371227E-10
         6  16 -2.383095E+06  7.084438E+01 -4.714493E+03  2.766033E+02 -1.791682E-09  5.065132E-10
         6  17 -2.382697E+06  1.314820E+02 -8.060962E+03  1.508330E+02  5.941669E-11 -1.188775E-11
         6  18 -2.383102E+06 -9.291573E+02 -1.429990E+04  2.506412E+01  7.524132E-10 -6.034356E-10
         6  19 -2.383095E+06  7.084766E+01 -4.714470E+03 -2.766033E+02 -3.486289E+03  1.559001E-03
         6  20 -2.382697E+06  1.314971E+02 -8.060856E+03 -1.508330E+02 -7.487043E+03  1.825711E-03
         6  21 -2.383102E+06 -9.291217E+02 -1.429965E+04 -2.506412E+01 -1.148771E+04  4.654904E-04
         6  22 -2.383095E+06  7.084751E+01 -4.714470E+03  2.229720E-09 -3.486289E+03  4.037913E-11
         6  23 -2.382697E+06  1.314971E+02 -8.060856E+03 -3.628567E-09 -7.487043E+03  3.460003E-10
         6  24 -2.383102E+06 -9.291217E+02 -1.429965E+04  6.116441E-09 -1.148771E+04 -7.174966E-10
         6  25 -2.383095E+06  7.084766E+01 -4.714470E+03  2.766033E+02 -3.486289E+03 -1.559000E-03
         6  26 -2.382697E+06  1.314971E+02 -8.060856E+03  1.508330E+02 -7.487043E+03 -1.825710E-03
         6  27 -2.383102E+06 -9.291217E+02 -1.429965E+04  2.506412E+01 -1.148771E+04 -4.654918E-04
         7   1 -2.384293E+06  8.799559E+02 -1.857147E+04 -2.695583E+03  1.437355E+04 -6.263867E-02
         7   2 -2.381225E+06  9.550883E+02 -3.200043E+04  1.284972E+03  3.049912E+04  6.335843E-02
         7   3 -2.384329E+06 -1.521857E+04 -6.001863E+04  5.265619E+03  4.662464E+04  3.969074E-01
         7   4 -2.384293E+06  8.799422E+02 -1.857147E+04  3.166229E-09  1.437355E+04  3.937296E-10
         7   5 -2.381225E+06  9.550852E+02 -3.200043E+04 -4.778960E-09  3.049912E+04  4.645551E-10
         7   6 -2.384329E+06 -1.521862E+04 -6.001864E+04  9.072371E-09  4.662464E+04 -1.791739E-10
         7   7 -2.384293E+06  8.799559E+02 -1.857147E+04  2.695583E+03  1.437355E+04  6.263867E-02
         7   8 -2.381225E+06  9.550883E+02 -3.200043E+04 -1.284972E+03  3.049912E+04 -6.335843E-02
         7   9 -2.384329E+06 -1.521857E+04 -6.001863E+04 -5.265619E+03  4.662464E+04 -3.969074E-01
         7  10 -2.384293E+06  8.799002E+02 -1.857186E+04 -2.695583E+03 -2.042052E-09 -3.150668E-10
         7  11 -2.381226E+06  9.548374E+02 -3.200218E+04  1.284972E+03  4.305589E-10  2.425344E-11
         7  12 -2.384331E+06 -1.521915E+04 -6.002273E+04  5.265619E+03  2.634120E-09 -5.610312E-10
         7  13 -2.384293E+06  8.798865E+02 -1.857186E+04  1.238969E-09  2.332951E-09 -1.363130E-10
         7  14 -2.381226E+06  9.548343E+02 -3.200218E+04 -5.907413E-09  4.306078E-10  3.343192E-10
         7  15 -2.384331E+06 -1.521920E+04 -6.002274E+04  7.927401E-09  1.008284E-09 -8.686500E-10
         7  16 -2.384293E+06  8.799002E+02 -1.857186E+04  2.695583E+03 -6.813435E-10 -5.584175E-11
         7  17 -2.381226E+06  9.548374E+02 -3.200218E+04 -1.284972E+03  2.796569E-09  4.501310E-10
         7  18 -2.384331E+06 -1.521915E+04 -6.002273E+04 -5.265619E+03 -4.725028E-10 -1.278728E-09
         7  19 -2.384293E+06  8.799559E+02 -1.857147E+04 -2.695583E+03 -1.437355E+04  6.263867E-02
         7  20 -2.381225E+06  9.550883E+02 -3.200043E+04  1.284972E+03 -3.049912E+04 -6.335843E-02
         7  21 -2.384329E+06 -1.521857E+04 -6.001863E+04  5.265619E+03 -4.662464E+04 -3.969074E-01
         7  22 -2.384293E+06  8.799422E+02 -1.857147E+04  7.896209E-09 -1.437355E+04 -6.834181E-10
         7  23 -2.381225E+06  9.550852E+02 -3.200043E+04 -2.736238E-09 -3.049912E+04  2.073493E-10
         7  24 -2.384329E+06 -1.521862E+04 -6.001864E+04  4.111496E-09 -4.662464E+04 -1.485552E-09
         7  25 -2.384293E+06  8.799559E+02 -1.857147E+04  2.695583E+03 -1.437355E+04 -6.263867E-02
         7  26 -2.381225E+06  9.550883E+02 -3.200043E+04 -1.284972E+03 -3.049912E+04  6.335843E-02
         7  27 -2.384329E+06 -1.521857E+04 -6.001863E+04 -5.265619E+03 -4.662464E+04  3.969074E-01
         8   1 -2.398012E+06  1.228956E+04 -7.490665E+04 -3.371865E+04  5.749107E+04 -3.134039E+00
         8   2 -2.364156E+06  1.010151E+04 -1.254952E+05  3.297341E+04  1.243076E+05  6.626301E+00
         8   3 -2.398278E+06 -2.288844E+05 -2.788933E+05  9.966087E+04  1.911251E+05  3.079380E+01
         8   4 -2.398013E+06  1.228741E+04 -7.490696E+04  6.489444E-09  5.749107E+04 -6.056956E-10
         8   5 -2.364157E+06  1.009946E+04 -1.254955E+05  1.013235E-08  1.243076E+05 -5.944345E-10
         8   6 -2.398289E+06 -2.289032E+05 -2.788960E+05  7.057398E-09  1.911251E+05 -2.434617E-10
         8   7 -2.398012E+06  1.228956E+04 -7.490665E+04  3.371865E+04  5.749107E+04  3.134039E+00
         8   8 -2.364156E+06  1.010151E+04 -1.254952E+05 -3.297341E+04  1.243076E+05 -6.626301E+00
         8   9 -2.398278E+06 -2.288844E+05 -2.788933E+05 -9.966087E+04  1.911251E+05 -3.079380E+01
         8  10 -2.398015E+06  1.228867E+04 -7.491289E+04 -3.371865E+04  1.598483E-09 -5.658478E-10
         8  11 -2.364172E+06  1.009734E+04 -1.255243E+05  3.297341E+04  1.602353E-09 -2.265296E-10
         8  12 -2.398318E+06 -2.288943E+05 -2.789622E+05  9.966087E+04  6.065030E-11 -7.242209E-12
         8  13 -2.398017E+06  1.228652E+04 -7.491319E+04 -2.023859E-09 -1.075863E-09 -1.295519E-09
         8  14 -2.364173E+06  1.009529E+04 -1.255246E+05  3.762432E-09  1.719555E-09 -7.221629E-10
         8  15 -2.398328E+06 -2.289130E+05 -2.789649E+05  1.061485E-08  1.889772E-09 -1.427589E-10
         8  16 -2.398015E+06  1.228867E+04 -7.491289E+04  3.371865E+04 -5.747240E-10 -2.011983E-09
         8  17 -2.364172E+06  1.009734E+04 -1.255243E+05 -3.297341E+04 -1.381826E-09 -1.007725E-09
         8  18 -2.398318E+06 -2.288943E+05 -2.789622E+05 -9.966087E+04 -7.988423E-10 -1.400066E-10
         8  19 -2.398012E+06  1.228956E+04 -7.490665E+04 -3.371865E+04 -5.749107E+04  3.134039E+00
         8  20 -2.364156E+06  1.010151E+04 -1.254952E+05  3.297341E+04 -1.243076E+05 -6.626301E+00
         8  21 -2.398278E+06 -2.288844E+05 -2.788933E+05  9.966087E+04 -1.911251E+05 -3.079380E+01
         8  22 -2.398013E+06  1.228741E+04 -7.490696E+04 -4.070746E-09 -5.749107E+04 -1.987136E-09
         8  23 -2.364157E+06  1.009946E+04 -1.254955E+05 -6.911505E-09 -1.243076E+05 -8.647147E-10
         8  24 -2.398289E+06 -2.289032E+05 -2.788960E+05  1.280904E-09 -1.911251E+05 -6.211428E-11
         8  25 -2.398012E+06  1.228956E+04 -7.490665E+04  3.371865E+04 -5.749107E+04 -3.134039E+00
         8  26 -2.364156E+06  1.010151E+04 -1.254952E+05 -3.297341E+04 -1.243076E+05  6.626301E+00
         8  27 -2.398278E+06 -2.288844E+05 -2.788933E+05 -9.966087E+04 -1.911251E+05  3.079380E+01
         9   1  1.859825E+06  6.135982E+06  1.811015E+06 -1.131481E+06  8.447157E+04  5.956288E+05
         9   2  1.394712E+06  5.059881E+06  1.234620E+06 -9.459415E+05  2.725339E+05  2.710224E+05
         9   3  1.105641E+06  4.073481E+06  9.128875E+05 -9.936364E+05  2.952925E+05 -5.297264E+04
         9   4  2.037379E+05 -5.812302E+05  2.267938E+05 -9.947930E+05  8.551977E+04  1.574224E+05
         9   5  4.023699E+04 -6.008669E+05  1.093965E+05 -8.784750E+05  2.732584E+05  1.015533E+05
         9   6  7.257396E+03 -5.775658E+05  6.158213E+04 -9.953611E+05  2.950753E+05  4.569833E+04
         9   7 -1.455405E+06 -7.256744E+06 -1.359820E+06 -8.595306E+05  8.638523E+04 -2.761111E+05
         9   8 -1.316164E+06 -6.231067E+06 -1.017317E+06 -8.115912E+05  2.739509E+05 -6.641440E+04
         9   9 -1.092345E+06 -5.207663E+06 -7.905686E+05 -9.970366E+05  2.948564E+05  1.436525E+05
         9  10  1.859723E+06  6.135602E+06  1.810341E+06 -1.131521E+06 -3.699118E-10 -2.512900E-09
         9  11  1.394613E+06  5.059782E+06  1.234343E+06 -9.460008E+05 -1.002339E-09 -1.788936E-09
         9  12  1.105547E+06  4.073455E+06  9.127186E+05 -9.936239E+05 -2.579101E-09 -1.159690E-09
         9  13  2.037233E+05 -5.812588E+05  2.267333E+05 -9.948038E+05 -4.584277E-10  6.749164E-11
         9  14  4.015401E+04 -6.008981E+05  1.092366E+05 -8.784974E+05 -1.487980E-09  4.570781E-11
         9  15  7.163335E+03 -5.775915E+05  6.141452E+04 -9.953720E+05 -2.728534E-09 -2.916254E-11
         9  16 -1.455433E+06 -7.256828E+06 -1.359979E+06 -8.595114E+05 -4.563953E-10  2.547817E-09
         9  17 -1.316245E+06 -6.231091E+06 -1.017466E+06 -8.115766E+05 -4.456604E-09  1.807649E-09
         9  18 -1.092444E+06 -5.207708E+06 -7.907713E+05 -9.970709E+05 -3.894904E-09  1.037507E-09
         9  19  1.859825E+06  6.135982E+06  1.811015E+06 -1.131481E+06 -8.447157E+04 -5.956288E+05
         9  20  1.394712E+06  5.059881E+06  1.234620E+06 -9.459415E+05 -2.725339E+05 -2.710224E+05
         9  21  1.105641E+06  4.073481E+06  9.128875E+05 -9.936364E+05 -2.952925E+05  5.297264E+04
         9  22  2.037379E+05 -5.812302E+05  2.267938E+05 -9.947930E+05 -8.551977E+04 -1.574224E+05
         9  23  4.023699E+04 -6.008669E+05  1.093965E+05 -8.784750E+05 -2.732584E+05 -1.015533E+05
         9  24  7.257396E+03 -5.775658E+05  6.158213E+04 -9.953611E+05 -2.950753E+05 -4.569833E+04
         9  25 -1.455405E+06 -7.256744E+06 -1.359820E+06 -8.595306E+05 -8.638523E+04  2.761111E+05
         9  26 -1.316164E+06 -6.231067E+06 -1.017317E+06 -8.115912E+05 -2.739509E+05  6.641440E+04
         9  27 -1.092345E+06 -5.207663E+06 -7.905686E+05 -9.970366E+05 -2.948564E+05 -1.436525E+05
        10   1  9.487112E+05  3.378008E+06  7.676115E+05 -1.012998E+06  2.570417E+05 -3.949464E+04
        10   2  6.962398E+05  2.344018E+06  5.461747E+05 -8.862688E+05  2.037340E+05 -7.197015E+04
        10   3  4.557930E+05  1.317329E+06  3.485120E+05 -1.003272E+06  1.388649E+05 -1.045722E+05
        10   4  1.329985E+04 -5.852885E+05  4.741003E+04 -9.976551E+05  2.568282E+05  3.734551E+04
        10   5  7.113341E+03 -5.858368E+05  2.741526E+04 -8.757722E+05  2.033333E+05  2.355726E+04
        10   6  9.796184E+03 -5.833171E+05  1.831153E+04 -9.976872E+05  1.382480E+05  9.590864E+03
        10   7 -9.229915E+05 -4.533344E+06 -6.733971E+05 -9.823848E+05  2.566175E+05  1.137099E+05
        10   8 -6.824798E+05 -3.507302E+06 -4.916286E+05 -8.653110E+05  2.029346E+05  1.186480E+05
        10   9 -4.363888E+05 -2.480397E+06 -3.119666E+05 -9.921127E+05  1.376320E+05  1.234156E+05
        10  10  9.486399E+05  3.377989E+06  7.674846E+05 -1.012989E+06 -8.274655E-10 -2.487337E-08
        10  11  6.961939E+05  2.344002E+06  5.460871E+05 -8.862570E+05  1.209437E-09  1.723655E-09
        10  12  4.557694E+05  1.317312E+06  3.484554E+05 -1.003260E+06  1.359912E-09  2.796164E-08
        10  13  1.322864E+04 -5.853077E+05  4.728341E+04 -9.976628E+05 -1.740961E-09  1.055418E-10
        10  14  7.068798E+03 -5.858485E+05  2.733651E+04 -8.757761E+05  1.917494E-09 -3.247363E-11
        10  15  9.775638E+03 -5.833223E+05  1.827544E+04 -9.976882E+05 -2.843065E-10  7.546816E-11
        10  16 -9.230657E+05 -4.533376E+06 -6.735455E+05 -9.824084E+05 -2.140054E-09  2.459023E-08
        10  17 -6.825279E+05 -3.507328E+06 -4.917327E+05 -8.653305E+05 -1.068834E-09 -1.566274E-09
        10  18 -4.364133E+05 -2.480418E+06 -3.120310E+05 -9.921264E+05  1.513237E-09 -2.792423E-08
        10  19  9.487112E+05  3.378008E+06  7.676115E+05 -1.012998E+06 -2.570417E+05  3.949464E+04
        10  20  6.962398E+05  2.344018E+06  5.461747E+05 -8.862688E+05 -2.037340E+05  7.197015E+04
        10  21  4.557930E+05  1.317329E+06  3.485120E+05 -1.003272E+06 -1.388649E+05  1.045722E+05
        10  22  1.329985E+04 -5.852885E+05  4.741003E+04 -9.976551E+05 -2.568282E+05 -3.734551E+04
        10  23  7.113341E+03 -5.858368E+05  2.741526E+04 -8.757722E+05 -2.033333E+05 -2.355726E+04
        10  24  9.796184E+03 -5.833171E+05  1.831153E+04 -9.976872E+05 -1.382480E+05 -9.590864E+03
        10  25 -9.229915E+05 -4.533344E+06 -6.733971E+05 -9.823848E+05 -2.566175E+05 -1.137099E+05
        10  26 -6.824798E+05 -3.507302E+06 -4.916286E+05 -8.653110E+05 -2.029346E+05 -1.186480E+05
        10  27 -4.363888E+05 -2.480397E+06 -3.119666E+05 -9.921127E+05 -1.376320E+05 -1.234156E+05
        11   1  2.953647E+05  6.370419E+05  2.213638E+05 -1.002868E+06  9.567476E+04 -1.095320E+05
        11   2  5.341917E+04 -3.898666E+05  2.524261E+04 -8.710792E+05  3.672436E+04 -7.420124E+04
        11   3 -1.822943E+05 -1.421171E+06 -1.930465E+05 -9.823025E+05  4.520959E+03 -3.885148E+04
        11   4  1.020586E+04 -5.831324E+05  1.580165E+04 -9.975144E+05  9.500600E+04  6.468573E+03
        11   5  1.251032E+04 -5.840822E+05  1.465573E+04 -8.759728E+05  3.629971E+04 -1.276183E+03
        11   6  2.857438E+04 -5.829929E+05  2.125353E+04 -9.974242E+05  4.342176E+03 -8.943973E+03
        11   7 -2.750240E+05 -1.801811E+06 -1.897571E+05 -9.921688E+05  9.433837E+04  1.222487E+05
        11   8 -2.839635E+04 -7.782449E+05  4.090951E+03 -8.808646E+05  3.587382E+04  7.162783E+04
        11   9  2.393899E+05  2.558214E+05  2.355022E+05 -1.012565E+06  4.162077E+03  2.100409E+04
        11  10  2.953517E+05  6.370266E+05  2.213241E+05 -1.002859E+06  1.095245E-09  1.934503E-09
        11  11  5.341625E+04 -3.898728E+05  2.522974E+04 -8.710770E+05 -9.316955E-10  1.440555E-09
        11  12 -1.822947E+05 -1.421172E+06 -1.930494E+05 -9.823024E+05 -2.653536E-09  4.863987E-10
        11  13  1.019616E+04 -5.831349E+05  1.578461E+04 -9.975149E+05  1.475461E-09  4.667700E-11
        11  14  1.250890E+04 -5.840826E+05  1.465325E+04 -8.759727E+05 -1.195304E-09 -2.491792E-11
        11  15  2.857434E+04 -5.829930E+05  2.125334E+04 -9.974242E+05  7.546363E-10  7.486424E-11
        11  16 -2.750376E+05 -1.801829E+06 -1.898021E+05 -9.921781E+05  7.661185E-10 -2.016368E-09
        11  17 -2.839912E+04 -7.782508E+05  4.078862E+03 -8.808667E+05  1.587567E-09 -1.317345E-09
        11  18  2.393898E+05  2.558209E+05  2.355013E+05 -1.012565E+06 -1.005955E-09 -5.550338E-10
        11  19  2.953647E+05  6.370419E+05  2.213638E+05 -1.002868E+06 -9.567476E+04  1.095320E+05
        11  20  5.341917E+04 -3.898666E+05  2.524261E+04 -8.710792E+05 -3.672436E+04  7.420124E+04
        11  21 -1.822943E+05 -1.421171E+06 -1.930465E+05 -9.823025E+05 -4.520959E+03  3.885148E+04
        11  22  1.020586E+04 -5.831324E+05  1.580165E+04 -9.975144E+05 -9.500600E+04 -6.468573E+03
        11  23  1.251032E+04 -5.840822E+05  1.465573E+04 -8.759728E+05 -3.629971E+04  1.276183E+03
        11  24  2.857438E+04 -5.829929E+05  2.125353E+04 -9.974242E+05 -4.342176E+03  8.943973E+03
        11  25 -2.750240E+05 -1.801811E+06 -1.897571E+05 -9.921688E+05 -9.433837E+04 -1.222487E+05
        11  26 -2.839635E+04 -7.782449E+05  4.090951E+03 -8.808646E+05 -3.587382E+04 -7.162783E+04
        11  27  2.393899E+05  2.558214E+05  2.355022E+05 -1.012565E+06 -4.162077E+03 -2.100409E+04
        12   1 -3.178345E+06 -8.678527E+05 -4.235936E+05 -1.211870E+06 -2.484181E+05 -9.107180E+04
        12   2 -3.122464E+06 -4.896150E+05 -1.923885E+05 -1.221795E+06 -1.577855E+05 -5.349379E+04
        12   3 -3.181212E+06 -4.328026E+05 -1.140836E+05 -1.168063E+06 -6.548531E+04 -2.034363E+04
        12   4 -3.115583E+06 -7.258646E+05 -3.834340E+05 -1.072982E+06 -2.444342E+05 -8.963797E+04
        12   5 -3.037885E+06 -4.198242E+05 -1.640297E+05 -1.159307E+06 -1.570857E+05 -5.324368E+04