    1C
    1UUSER                                                              
    1UDATE              17.september.2022                               
    1UTIME              14:25:43                                        
    1UHOST                                                              
    1UPGM               CalculiX                                        
    1UVERSION           Version 2.20                             
    1UCOMPILETIME       Sun Jul 31 18:08:37 CEST 2022                    
    1UDIR                                                               
    1UDBN                                                               
    1UMAT    1MESH_MATERIAL                                             
    2C                           996                                     1
 -1         1 0.00000E+00 0.00000E+00 0.00000E+00
 -1         2 8.33333E-03 0.00000E+00 0.00000E+00
 -1         3 1.66667E-02 0.00000E+00 0.00000E+00
 -1         4 2.50000E-02 0.00000E+00 0.00000E+00
 -1         5 3.33333E-02 0.00000E+00 0.00000E+00
 -1         6 4.16667E-02 0.00000E+00 0.00000E+00
 -1         7 5.00000E-02 0.00000E+00 0.00000E+00
 -1         8 5.83333E-02 0.00000E+00 0.00000E+00
 -1         9 6.66667E-02 0.00000E+00 0.00000E+00
 -1        14 0.00000E+00 6.25000E-03 0.00000E+00
 -1        15 8.33333E-03 6.25000E-03 0.00000E+00
 -1        16 1.66667E-02 6.25000E-03 0.00000E+00
 -1        17 2.50000E-02 6.25000E-03 0.00000E+00
 -1        18 3.33333E-02 6.25000E-03 0.00000E+00
 -1        19 4.16667E-02 6.25000E-03 0.00000E+00
 -1        20 5.00000E-02 6.25000E-03 0.00000E+00
 -1        21 5.83333E-02 6.25000E-03 0.00000E+00
 -1        22 6.66667E-02 6.25000E-03 0.00000E+00
 -1        27 0.00000E+00 1.25000E-02 0.00000E+00
 -1        28 8.33333E-03 1.25000E-02 0.00000E+00
 -1        29 1.66667E-02 1.25000E-02 0.00000E+00
 -1        30 2.50000E-02 1.25000E-02 0.00000E+00
 -1        31 3.33333E-02 1.25000E-02 0.00000E+00
 -1        32 4.16667E-02 1.25000E-02 0.00000E+00
 -1        33 5.00000E-02 1.25000E-02 0.00000E+00
 -1        34 5.83333E-02 1.25000E-02 0.00000E+00
 -1        35 6.66667E-02 1.25000E-02 0.00000E+00
 -1        36 7.50000E-02 1.25000E-02 0.00000E+00
 -1        37 8.33333E-02 1.25000E-02 0.00000E+00
 -1        38 9.16667E-02 1.25000E-02 0.00000E+00
 -1        39 1.00000E-01 1.25000E-02 0.00000E+00
 -1        40 0.00000E+00 1.87500E-02 0.00000E+00
 -1        41 8.33333E-03 1.87500E-02 0.00000E+00
 -1        42 1.66667E-02 1.87500E-02 0.00000E+00
 -1        43 2.50000E-02 1.87500E-02 0.00000E+00
 -1        44 3.33333E-02 1.87500E-02 0.00000E+00
 -1        45 4.16667E-02 1.87500E-02 0.00000E+00
 -1        46 5.00000E-02 1.87500E-02 0.00000E+00
 -1        47 5.83333E-02 1.87500E-02 0.00000E+00
 -1        48 6.66667E-02 1.87500E-02 0.00000E+00
 -1        49 7.50000E-02 1.87500E-02 0.00000E+00
 -1        50 8.33333E-02 1.87500E-02 0.00000E+00
 -1        51 9.16667E-02 1.87500E-02 0.00000E+00
 -1        52 1.00000E-01 1.87500E-02 0.00000E+00
 -1        53 0.00000E+00 2.50000E-02 0.00000E+00
 -1        54 8.33333E-03 2.50000E-02 0.00000E+00
 -1        55 1.66667E-02 2.50000E-02 0.00000E+00
 -1        56 2.50000E-02 2.50000E-02 0.00000E+00
 -1        57 3.33333E-02 2.50000E-02 0.00000E+00
 -1        58 4.16667E-02 2.50000E-02 0.00000E+00
 -1        59 5.00000E-02 2.50000E-02 0.00000E+00
 -1        60 5.83333E-02 2.50000E-02 0.00000E+00
 -1        61 6.66667E-02 2.50000E-02 0.00000E+00
 -1        62 7.50000E-02 2.50000E-02 0.00000E+00
 -1        63 8.33333E-02 2.50000E-02 0.00000E+00
 -1        64 9.16667E-02 2.50000E-02 0.00000E+00
 -1        65 1.00000E-01 2.50000E-02 0.00000E+00
 -1        66 1.04167E-03 0.00000E+00 0.00000E+00
 -1        67 2.08333E-03 0.00000E+00 0.00000E+00
 -1        68 3.12500E-03 0.00000E+00 0.00000E+00
 -1        69 4.16667E-03 0.00000E+00 0.00000E+00
 -1        70 5.20833E-03 0.00000E+00 0.00000E+00
 -1        71 6.25000E-03 0.00000E+00 0.00000E+00
 -1        72 7.29167E-03 0.00000E+00 0.00000E+00
 -1        73 0.00000E+00 1.04167E-03 0.00000E+00
 -1        74 0.00000E+00 2.08333E-03 0.00000E+00
 -1        75 0.00000E+00 3.12500E-03 0.00000E+00
 -1        76 0.00000E+00 4.16667E-03 0.00000E+00
 -1        77 0.00000E+00 5.20833E-03 0.00000E+00
 -1        78 8.33330E-04 6.25000E-04 0.00000E+00
 -1        79 1.66667E-03 1.25000E-03 0.00000E+00
 -1        80 2.50000E-03 1.87500E-03 0.00000E+00
 -1        81 3.33333E-03 2.50000E-03 0.00000E+00
 -1        82 4.16667E-03 3.12500E-03 0.00000E+00
 -1        83 5.00000E-03 3.75000E-03 0.00000E+00
 -1        84 5.83333E-03 4.37500E-03 0.00000E+00
 -1        85 6.66667E-03 5.00000E-03 0.00000E+00
 -1        86 7.50000E-03 5.62500E-03 0.00000E+00
 -1        87 9.37500E-03 0.00000E+00 0.00000E+00
 -1        88 1.04167E-02 0.00000E+00 0.00000E+00
 -1        89 1.14583E-02 0.00000E+00 0.00000E+00
 -1        90 1.25000E-02 0.00000E+00 0.00000E+00
 -1        91 1.35417E-02 0.00000E+00 0.00000E+00
 -1        92 1.45833E-02 0.00000E+00 0.00000E+00
 -1        93 1.56250E-02 0.00000E+00 0.00000E+00
 -1        94 8.33333E-03 1.04167E-03 0.00000E+00
 -1        95 8.33333E-03 2.08333E-03 0.00000E+00
 -1        96 8.33333E-03 3.12500E-03 0.00000E+00
 -1        97 8.33333E-03 4.16667E-03 0.00000E+00
 -1        98 8.33333E-03 5.20833E-03 0.00000E+00
 -1        99 9.16667E-03 6.25000E-04 0.00000E+00
 -1       100 1.00000E-02 1.25000E-03 0.00000E+00
 -1       101 1.08333E-02 1.87500E-03 0.00000E+00
 -1       102 1.16667E-02 2.50000E-03 0.00000E+00
 -1       103 1.25000E-02 3.12500E-03 0.00000E+00
 -1       104 1.33333E-02 3.75000E-03 0.00000E+00
 -1       105 1.41667E-02 4.37500E-03 0.00000E+00
 -1       106 1.50000E-02 5.00000E-03 0.00000E+00
 -1       107 1.58333E-02 5.62500E-03 0.00000E+00
 -1       108 1.77083E-02 0.00000E+00 0.00000E+00
 -1       109 1.87500E-02 0.00000E+00 0.00000E+00
 -1       110 1.97917E-02 0.00000E+00 0.00000E+00
 -1       111 2.08333E-02 0.00000E+00 0.00000E+00
 -1       112 2.18750E-02 0.00000E+00 0.00000E+00
 -1       113 2.29167E-02 0.00000E+00 0.00000E+00
 -1       114 2.39583E-02 0.00000E+00 0.00000E+00
 -1       115 1.66667E-02 1.04167E-03 0.00000E+00
 -1       116 1.66667E-02 2.08333E-03 0.00000E+00
 -1       117 1.66667E-02 3.12500E-03 0.00000E+00
 -1       118 1.66667E-02 4.16667E-03 0.00000E+00
 -1       119 1.66667E-02 5.20833E-03 0.00000E+00
 -1       120 1.75000E-02 6.25000E-04 0.00000E+00
 -1       121 1.83333E-02 1.25000E-03 0.00000E+00
 -1       122 1.91667E-02 1.87500E-03 0.00000E+00
 -1       123 2.00000E-02 2.50000E-03 0.00000E+00
 -1       124 2.08333E-02 3.12500E-03 0.00000E+00
 -1       125 2.16667E-02 3.75000E-03 0.00000E+00
 -1       126 2.25000E-02 4.37500E-03 0.00000E+00
 -1       127 2.33333E-02 5.00000E-03 0.00000E+00
 -1       128 2.41667E-02 5.62500E-03 0.00000E+00
 -1       129 2.60417E-02 0.00000E+00 0.00000E+00
 -1       130 2.70833E-02 0.00000E+00 0.00000E+00
 -1       131 2.81250E-02 0.00000E+00 0.00000E+00
 -1       132 2.91667E-02 0.00000E+00 0.00000E+00
 -1       133 3.02083E-02 0.00000E+00 0.00000E+00
 -1       134 3.12500E-02 0.00000E+00 0.00000E+00
 -1       135 3.22917E-02 0.00000E+00 0.00000E+00
 -1       136 2.50000E-02 1.04167E-03 0.00000E+00
 -1       137 2.50000E-02 2.08333E-03 0.00000E+00
 -1       138 2.50000E-02 3.12500E-03 0.00000E+00
 -1       139 2.50000E-02 4.16667E-03 0.00000E+00
 -1       140 2.50000E-02 5.20833E-03 0.00000E+00
 -1       141 2.58333E-02 6.25000E-04 0.00000E+00
 -1       142 2.66667E-02 1.25000E-03 0.00000E+00
 -1       143 2.75000E-02 1.87500E-03 0.00000E+00
 -1       144 2.83333E-02 2.50000E-03 0.00000E+00
 -1       145 2.91667E-02 3.12500E-03 0.00000E+00
 -1       146 3.00000E-02 3.75000E-03 0.00000E+00
 -1       147 3.08333E-02 4.37500E-03 0.00000E+00
 -1       148 3.16667E-02 5.00000E-03 0.00000E+00
 -1       149 3.25000E-02 5.62500E-03 0.00000E+00
 -1       150 3.43750E-02 0.00000E+00 0.00000E+00
 -1       151 3.54167E-02 0.00000E+00 0.00000E+00
 -1       152 3.64583E-02 0.00000E+00 0.00000E+00
 -1       153 3.75000E-02 0.00000E+00 0.00000E+00
 -1       154 3.85417E-02 0.00000E+00 0.00000E+00
 -1       155 3.95833E-02 0.00000E+00 0.00000E+00
 -1       156 4.06250E-02 0.00000E+00 0.00000E+00
 -1       157 3.33333E-02 1.04167E-03 0.00000E+00
 -1       158 3.33333E-02 2.08333E-03 0.00000E+00
 -1       159 3.33333E-02 3.12500E-03 0.00000E+00
 -1       160 3.33333E-02 4.16667E-03 0.00000E+00
 -1       161 3.33333E-02 5.20833E-03 0.00000E+00
 -1       162 3.41667E-02 6.25000E-04 0.00000E+00
 -1       163 3.50000E-02 1.25000E-03 0.00000E+00
 -1       164 3.58333E-02 1.87500E-03 0.00000E+00
 -1       165 3.66667E-02 2.50000E-03 0.00000E+00
 -1       166 3.75000E-02 3.12500E-03 0.00000E+00
 -1       167 3.83333E-02 3.75000E-03 0.00000E+00
 -1       168 3.91667E-02 4.37500E-03 0.00000E+00
 -1       169 4.00000E-02 5.00000E-03 0.00000E+00
 -1       170 4.08333E-02 5.62500E-03 0.00000E+00
 -1       171 4.27083E-02 0.00000E+00 0.00000E+00
 -1       172 4.37500E-02 0.00000E+00 0.00000E+00
 -1       173 4.47917E-02 0.00000E+00 0.00000E+00
 -1       174 4.58333E-02 0.00000E+00 0.00000E+00
 -1       175 4.68750E-02 0.00000E+00 0.00000E+00
 -1       176 4.79167E-02 0.00000E+00 0.00000E+00
 -1       177 4.89583E-02 0.00000E+00 0.00000E+00
 -1       178 4.16667E-02 1.04167E-03 0.00000E+00
 -1       179 4.16667E-02 2.08333E-03 0.00000E+00
 -1       180 4.16667E-02 3.12500E-03 0.00000E+00
 -1       181 4.16667E-02 4.16667E-03 0.00000E+00
 -1       182 4.16667E-02 5.20833E-03 0.00000E+00
 -1       183 4.25000E-02 6.25000E-04 0.00000E+00
 -1       184 4.33333E-02 1.25000E-03 0.00000E+00
 -1       185 4.41667E-02 1.87500E-03 0.00000E+00
 -1       186 4.50000E-02 2.50000E-03 0.00000E+00
 -1       187 4.58333E-02 3.12500E-03 0.00000E+00
 -1       188 4.66667E-02 3.75000E-03 0.00000E+00
 -1       189 4.75000E-02 4.37500E-03 0.00000E+00
 -1       190 4.83333E-02 5.00000E-03 0.00000E+00
 -1       191 4.91667E-02 5.62500E-03 0.00000E+00
 -1       192 5.10417E-02 0.00000E+00 0.00000E+00
 -1       193 5.20833E-02 0.00000E+00 0.00000E+00
 -1       194 5.31250E-02 0.00000E+00 0.00000E+00
 -1       195 5.41667E-02 0.00000E+00 0.00000E+00
 -1       196 5.52083E-02 0.00000E+00 0.00000E+00
 -1       197 5.62500E-02 0.00000E+00 0.00000E+00
 -1       198 5.72917E-02 0.00000E+00 0.00000E+00
 -1       199 5.00000E-02 1.04167E-03 0.00000E+00
 -1       200 5.00000E-02 2.08333E-03 0.00000E+00
 -1       201 5.00000E-02 3.12500E-03 0.00000E+00
 -1       202 5.00000E-02 4.16667E-03 0.00000E+00
 -1       203 5.00000E-02 5.20833E-03 0.00000E+00
 -1       204 5.08333E-02 6.25000E-04 0.00000E+00
 -1       205 5.16667E-02 1.25000E-03 0.00000E+00
 -1       206 5.25000E-02 1.87500E-03 0.00000E+00
 -1       207 5.33333E-02 2.50000E-03 0.00000E+00
 -1       208 5.41667E-02 3.12500E-03 0.00000E+00
 -1       209 5.50000E-02 3.75000E-03 0.00000E+00
 -1       210 5.58333E-02 4.37500E-03 0.00000E+00
 -1       211 5.66667E-02 5.00000E-03 0.00000E+00
 -1       212 5.75000E-02 5.62500E-03 0.00000E+00
 -1       213 5.93750E-02 0.00000E+00 0.00000E+00
 -1       214 6.04167E-02 0.00000E+00 0.00000E+00
 -1       215 6.14583E-02 0.00000E+00 0.00000E+00
 -1       216 6.25000E-02 0.00000E+00 0.00000E+00
 -1       217 6.35417E-02 0.00000E+00 0.00000E+00
 -1       218 6.45833E-02 0.00000E+00 0.00000E+00
 -1       219 6.56250E-02 0.00000E+00 0.00000E+00
 -1       220 5.83333E-02 1.04167E-03 0.00000E+00
 -1       221 5.83333E-02 2.08333E-03 0.00000E+00
 -1       222 5.83333E-02 3.12500E-03 0.00000E+00
 -1       223 5.83333E-02 4.16667E-03 0.00000E+00
 -1       224 5.83333E-02 5.20833E-03 0.00000E+00
 -1       225 5.91667E-02 6.25000E-04 0.00000E+00
 -1       226 6.00000E-02 1.25000E-03 0.00000E+00
 -1       227 6.08333E-02 1.87500E-03 0.00000E+00
 -1       228 6.16667E-02 2.50000E-03 0.00000E+00
 -1       229 6.25000E-02 3.12500E-03 0.00000E+00
 -1       230 6.33333E-02 3.75000E-03 0.00000E+00
 -1       231 6.41667E-02 4.37500E-03 0.00000E+00
 -1       232 6.50000E-02 5.00000E-03 0.00000E+00
 -1       233 6.58333E-02 5.62500E-03 0.00000E+00
 -1       241 6.66667E-02 1.04167E-03 0.00000E+00
 -1       242 6.66667E-02 2.08333E-03 0.00000E+00
 -1       243 6.66667E-02 3.12500E-03 0.00000E+00
 -1       244 6.66667E-02 4.16667E-03 0.00000E+00
 -1       245 6.66667E-02 5.20833E-03 0.00000E+00
 -1       323 1.04167E-03 6.25000E-03 0.00000E+00
 -1       324 2.08333E-03 6.25000E-03 0.00000E+00
 -1       325 3.12500E-03 6.25000E-03 0.00000E+00
 -1       326 4.16667E-03 6.25000E-03 0.00000E+00
 -1       327 5.20833E-03 6.25000E-03 0.00000E+00
 -1       328 6.25000E-03 6.25000E-03 0.00000E+00
 -1       329 7.29167E-03 6.25000E-03 0.00000E+00
 -1       330 0.00000E+00 7.29167E-03 0.00000E+00
 -1       331 0.00000E+00 8.33333E-03 0.00000E+00
 -1       332 0.00000E+00 9.37500E-03 0.00000E+00
 -1       333 0.00000E+00 1.04167E-02 0.00000E+00
 -1       334 0.00000E+00 1.14583E-02 0.00000E+00
 -1       335 8.33330E-04 6.87500E-03 0.00000E+00
 -1       336 1.66667E-03 7.50000E-03 0.00000E+00
 -1       337 2.50000E-03 8.12500E-03 0.00000E+00
 -1       338 3.33333E-03 8.75000E-03 0.00000E+00
 -1       339 4.16667E-03 9.37500E-03 0.00000E+00
 -1       340 5.00000E-03 1.00000E-02 0.00000E+00
 -1       341 5.83333E-03 1.06250E-02 0.00000E+00
 -1       342 6.66667E-03 1.12500E-02 0.00000E+00
 -1       343 7.50000E-03 1.18750E-02 0.00000E+00
 -1       344 9.37500E-03 6.25000E-03 0.00000E+00
 -1       345 1.04167E-02 6.25000E-03 0.00000E+00
 -1       346 1.14583E-02 6.25000E-03 0.00000E+00
 -1       347 1.25000E-02 6.25000E-03 0.00000E+00
 -1       348 1.35417E-02 6.25000E-03 0.00000E+00
 -1       349 1.45833E-02 6.25000E-03 0.00000E+00
 -1       350 1.56250E-02 6.25000E-03 0.00000E+00
 -1       351 8.33333E-03 7.29167E-03 0.00000E+00
 -1       352 8.33333E-03 8.33333E-03 0.00000E+00
 -1       353 8.33333E-03 9.37500E-03 0.00000E+00
 -1       354 8.33333E-03 1.04167E-02 0.00000E+00
 -1       355 8.33333E-03 1.14583E-02 0.00000E+00
 -1       356 9.16667E-03 6.87500E-03 0.00000E+00
 -1       357 1.00000E-02 7.50000E-03 0.00000E+00
 -1       358 1.08333E-02 8.12500E-03 0.00000E+00
 -1       359 1.16667E-02 8.75000E-03 0.00000E+00
 -1       360 1.25000E-02 9.37500E-03 0.00000E+00
 -1       361 1.33333E-02 1.00000E-02 0.00000E+00
 -1       362 1.41667E-02 1.06250E-02 0.00000E+00
 -1       363 1.50000E-02 1.12500E-02 0.00000E+00
 -1       364 1.58333E-02 1.18750E-02 0.00000E+00
 -1       365 1.77083E-02 6.25000E-03 0.00000E+00
 -1       366 1.87500E-02 6.25000E-03 0.00000E+00
 -1       367 1.97917E-02 6.25000E-03 0.00000E+00
 -1       368 2.08333E-02 6.25000E-03 0.00000E+00
 -1       369 2.18750E-02 6.25000E-03 0.00000E+00
 -1       370 2.29167E-02 6.25000E-03 0.00000E+00
 -1       371 2.39583E-02 6.25000E-03 0.00000E+00
 -1       372 1.66667E-02 7.29167E-03 0.00000E+00
 -1       373 1.66667E-02 8.33333E-03 0.00000E+00
 -1       374 1.66667E-02 9.37500E-03 0.00000E+00
 -1       375 1.66667E-02 1.04167E-02 0.00000E+00
 -1       376 1.66667E-02 1.14583E-02 0.00000E+00
 -1       377 1.75000E-02 6.87500E-03 0.00000E+00
 -1       378 1.83333E-02 7.50000E-03 0.00000E+00
 -1       379 1.91667E-02 8.12500E-03 0.00000E+00
 -1       380 2.00000E-02 8.75000E-03 0.00000E+00
 -1       381 2.08333E-02 9.37500E-03 0.00000E+00
 -1       382 2.16667E-02 1.00000E-02 0.00000E+00
 -1       383 2.25000E-02 1.06250E-02 0.00000E+00
 -1       384 2.33333E-02 1.12500E-02 0.00000E+00
 -1       385 2.41667E-02 1.18750E-02 0.00000E+00
 -1       386 2.60417E-02 6.25000E-03 0.00000E+00
 -1       387 2.70833E-02 6.25000E-03 0.00000E+00
 -1       388 2.81250E-02 6.25000E-03 0.00000E+00
 -1       389 2.91667E-02 6.25000E-03 0.00000E+00
 -1       390 3.02083E-02 6.25000E-03 0.00000E+00
 -1       391 3.12500E-02 6.25000E-03 0.00000E+00
 -1       392 3.22917E-02 6.25000E-03 0.00000E+00
 -1       393 2.50000E-02 7.29167E-03 0.00000E+00
 -1       394 2.50000E-02 8.33333E-03 0.00000E+00
 -1       395 2.50000E-02 9.37500E-03 0.00000E+00
 -1       396 2.50000E-02 1.04167E-02 0.00000E+00
 -1       397 2.50000E-02 1.14583E-02 0.00000E+00
 -1       398 2.58333E-02 6.87500E-03 0.00000E+00
 -1       399 2.66667E-02 7.50000E-03 0.00000E+00
 -1       400 2.75000E-02 8.12500E-03 0.00000E+00
 -1       401 2.83333E-02 8.75000E-03 0.00000E+00
 -1       402 2.91667E-02 9.37500E-03 0.00000E+00
 -1       403 3.00000E-02 1.00000E-02 0.00000E+00
 -1       404 3.08333E-02 1.06250E-02 0.00000E+00
 -1       405 3.16667E-02 1.12500E-02 0.00000E+00
 -1       406 3.25000E-02 1.18750E-02 0.00000E+00
 -1       407 3.43750E-02 6.25000E-03 0.00000E+00
 -1       408 3.54167E-02 6.25000E-03 0.00000E+00
 -1       409 3.64583E-02 6.25000E-03 0.00000E+00
 -1       410 3.75000E-02 6.25000E-03 0.00000E+00
 -1       411 3.85417E-02 6.25000E-03 0.00000E+00
 -1       412 3.95833E-02 6.25000E-03 0.00000E+00
 -1       413 4.06250E-02 6.25000E-03 0.00000E+00
 -1       414 3.33333E-02 7.29167E-03 0.00000E+00
 -1       415 3.33333E-02 8.33333E-03 0.00000E+00
 -1       416 3.33333E-02 9.37500E-03 0.00000E+00
 -1       417 3.33333E-02 1.04167E-02 0.00000E+00
 -1       418 3.33333E-02 1.14583E-02 0.00000E+00
 -1       419 3.41667E-02 6.87500E-03 0.00000E+00
 -1       420 3.50000E-02 7.50000E-03 0.00000E+00
 -1       421 3.58333E-02 8.12500E-03 0.00000E+00
 -1       422 3.66667E-02 8.75000E-03 0.00000E+00
 -1       423 3.75000E-02 9.37500E-03 0.00000E+00
 -1       424 3.83333E-02 1.00000E-02 0.00000E+00
 -1       425 3.91667E-02 1.06250E-02 0.00000E+00
 -1       426 4.00000E-02 1.12500E-02 0.00000E+00
 -1       427 4.08333E-02 1.18750E-02 0.00000E+00
 -1       428 4.27083E-02 6.25000E-03 0.00000E+00
 -1       429 4.37500E-02 6.25000E-03 0.00000E+00
 -1       430 4.47917E-02 6.25000E-03 0.00000E+00
 -1       431 4.58333E-02 6.25000E-03 0.00000E+00
 -1       432 4.68750E-02 6.25000E-03 0.00000E+00
 -1       433 4.79167E-02 6.25000E-03 0.00000E+00
 -1       434 4.89583E-02 6.25000E-03 0.00000E+00
 -1       435 4.16667E-02 7.29167E-03 0.00000E+00
 -1       436 4.16667E-02 8.33333E-03 0.00000E+00
 -1       437 4.16667E-02 9.37500E-03 0.00000E+00
 -1       438 4.16667E-02 1.04167E-02 0.00000E+00
 -1       439 4.16667E-02 1.14583E-02 0.00000E+00
 -1       440 4.25000E-02 6.87500E-03 0.00000E+00
 -1       441 4.33333E-02 7.50000E-03 0.00000E+00
 -1       442 4.41667E-02 8.12500E-03 0.00000E+00
 -1       443 4.50000E-02 8.75000E-03 0.00000E+00
 -1       444 4.58333E-02 9.37500E-03 0.00000E+00
 -1       445 4.66667E-02 1.00000E-02 0.00000E+00
 -1       446 4.75000E-02 1.06250E-02 0.00000E+00
 -1       447 4.83333E-02 1.12500E-02 0.00000E+00
 -1       448 4.91667E-02 1.18750E-02 0.00000E+00
 -1       449 5.10417E-02 6.25000E-03 0.00000E+00
 -1       450 5.20833E-02 6.25000E-03 0.00000E+00
 -1       451 5.31250E-02 6.25000E-03 0.00000E+00
 -1       452 5.41667E-02 6.25000E-03 0.00000E+00
 -1       453 5.52083E-02 6.25000E-03 0.00000E+00
 -1       454 5.62500E-02 6.25000E-03 0.00000E+00
 -1       455 5.72917E-02 6.25000E-03 0.00000E+00
 -1       456 5.00000E-02 7.29167E-03 0.00000E+00
 -1       457 5.00000E-02 8.33333E-03 0.00000E+00
 -1       458 5.00000E-02 9.37500E-03 0.00000E+00
 -1       459 5.00000E-02 1.04167E-02 0.00000E+00
 -1       460 5.00000E-02 1.14583E-02 0.00000E+00
 -1       461 5.08333E-02 6.87500E-03 0.00000E+00
 -1       462 5.16667E-02 7.50000E-03 0.00000E+00
 -1       463 5.25000E-02 8.12500E-03 0.00000E+00
 -1       464 5.33333E-02 8.75000E-03 0.00000E+00
 -1       465 5.41667E-02 9.37500E-03 0.00000E+00
 -1       466 5.50000E-02 1.00000E-02 0.00000E+00
 -1       467 5.58333E-02 1.06250E-02 0.00000E+00
 -1       468 5.66667E-02 1.12500E-02 0.00000E+00
 -1       469 5.75000E-02 1.18750E-02 0.00000E+00
 -1       470 5.93750E-02 6.25000E-03 0.00000E+00
 -1       471 6.04167E-02 6.25000E-03 0.00000E+00
 -1       472 6.14583E-02 6.25000E-03 0.00000E+00
 -1       473 6.25000E-02 6.25000E-03 0.00000E+00
 -1       474 6.35417E-02 6.25000E-03 0.00000E+00
 -1       475 6.45833E-02 6.25000E-03 0.00000E+00
 -1       476 6.56250E-02 6.25000E-03 0.00000E+00
 -1       477 5.83333E-02 7.29167E-03 0.00000E+00
 -1       478 5.83333E-02 8.33333E-03 0.00000E+00
 -1       479 5.83333E-02 9.37500E-03 0.00000E+00
 -1       480 5.83333E-02 1.04167E-02 0.00000E+00
 -1       481 5.83333E-02 1.14583E-02 0.00000E+00
 -1       482 5.91667E-02 6.87500E-03 0.00000E+00
 -1       483 6.00000E-02 7.50000E-03 0.00000E+00
 -1       484 6.08333E-02 8.12500E-03 0.00000E+00
 -1       485 6.16667E-02 8.75000E-03 0.00000E+00
 -1       486 6.25000E-02 9.37500E-03 0.00000E+00
 -1       487 6.33333E-02 1.00000E-02 0.00000E+00
 -1       488 6.41667E-02 1.06250E-02 0.00000E+00
 -1       489 6.50000E-02 1.12500E-02 0.00000E+00
 -1       490 6.58333E-02 1.18750E-02 0.00000E+00
 -1       498 6.66667E-02 7.29167E-03 0.00000E+00
 -1       499 6.66667E-02 8.33333E-03 0.00000E+00
 -1       500 6.66667E-02 9.37500E-03 0.00000E+00
 -1       501 6.66667E-02 1.04167E-02 0.00000E+00
 -1       502 6.66667E-02 1.14583E-02 0.00000E+00
 -1       580 1.04167E-03 1.25000E-02 0.00000E+00
 -1       581 2.08333E-03 1.25000E-02 0.00000E+00
 -1       582 3.12500E-03 1.25000E-02 0.00000E+00
 -1       583 4.16667E-03 1.25000E-02 0.00000E+00
 -1       584 5.20833E-03 1.25000E-02 0.00000E+00
 -1       585 6.25000E-03 1.25000E-02 0.00000E+00
 -1       586 7.29167E-03 1.25000E-02 0.00000E+00
 -1       587 0.00000E+00 1.35417E-02 0.00000E+00
 -1       588 0.00000E+00 1.45833E-02 0.00000E+00
 -1       589 0.00000E+00 1.56250E-02 0.00000E+00
 -1       590 0.00000E+00 1.66667E-02 0.00000E+00
 -1       591 0.00000E+00 1.77083E-02 0.00000E+00
 -1       592 8.33330E-04 1.31250E-02 0.00000E+00
 -1       593 1.66667E-03 1.37500E-02 0.00000E+00
 -1       594 2.50000E-03 1.43750E-02 0.00000E+00
 -1       595 3.33333E-03 1.50000E-02 0.00000E+00
 -1       596 4.16667E-03 1.56250E-02 0.00000E+00
 -1       597 5.00000E-03 1.62500E-02 0.00000E+00
 -1       598 5.83333E-03 1.68750E-02 0.00000E+00
 -1       599 6.66667E-03 1.75000E-02 0.00000E+00
 -1       600 7.50000E-03 1.81250E-02 0.00000E+00
 -1       601 9.37500E-03 1.25000E-02 0.00000E+00
 -1       602 1.04167E-02 1.25000E-02 0.00000E+00
 -1       603 1.14583E-02 1.25000E-02 0.00000E+00
 -1       604 1.25000E-02 1.25000E-02 0.00000E+00
 -1       605 1.35417E-02 1.25000E-02 0.00000E+00
 -1       606 1.45833E-02 1.25000E-02 0.00000E+00
 -1       607 1.56250E-02 1.25000E-02 0.00000E+00
 -1       608 8.33333E-03 1.35417E-02 0.00000E+00
 -1       609 8.33333E-03 1.45833E-02 0.00000E+00
 -1       610 8.33333E-03 1.56250E-02 0.00000E+00
 -1       611 8.33333E-03 1.66667E-02 0.00000E+00
 -1       612 8.33333E-03 1.77083E-02 0.00000E+00
 -1       613 9.16667E-03 1.31250E-02 0.00000E+00
 -1       614 1.00000E-02 1.37500E-02 0.00000E+00
 -1       615 1.08333E-02 1.43750E-02 0.00000E+00
 -1       616 1.16667E-02 1.50000E-02 0.00000E+00
 -1       617 1.25000E-02 1.56250E-02 0.00000E+00
 -1       618 1.33333E-02 1.62500E-02 0.00000E+00
 -1       619 1.41667E-02 1.68750E-02 0.00000E+00
 -1       620 1.50000E-02 1.75000E-02 0.00000E+00
 -1       621 1.58333E-02 1.81250E-02 0.00000E+00
 -1       622 1.77083E-02 1.25000E-02 0.00000E+00
 -1       623 1.87500E-02 1.25000E-02 0.00000E+00
 -1       624 1.97917E-02 1.25000E-02 0.00000E+00
 -1       625 2.08333E-02 1.25000E-02 0.00000E+00
 -1       626 2.18750E-02 1.25000E-02 0.00000E+00
 -1       627 2.29167E-02 1.25000E-02 0.00000E+00
 -1       628 2.39583E-02 1.25000E-02 0.00000E+00
 -1       629 1.66667E-02 1.35417E-02 0.00000E+00
 -1       630 1.66667E-02 1.45833E-02 0.00000E+00
 -1       631 1.66667E-02 1.56250E-02 0.00000E+00
 -1       632 1.66667E-02 1.66667E-02 0.00000E+00
 -1       633 1.66667E-02 1.77083E-02 0.00000E+00
 -1       634 1.75000E-02 1.31250E-02 0.00000E+00
 -1       635 1.83333E-02 1.37500E-02 0.00000E+00
 -1       636 1.91667E-02 1.43750E-02 0.00000E+00
 -1       637 2.00000E-02 1.50000E-02 0.00000E+00
 -1       638 2.08333E-02 1.56250E-02 0.00000E+00
 -1       639 2.16667E-02 1.62500E-02 0.00000E+00
 -1       640 2.25000E-02 1.68750E-02 0.00000E+00
 -1       641 2.33333E-02 1.75000E-02 0.00000E+00
 -1       642 2.41667E-02 1.81250E-02 0.00000E+00
 -1       643 2.60417E-02 1.25000E-02 0.00000E+00
 -1       644 2.70833E-02 1.25000E-02 0.00000E+00
 -1       645 2.81250E-02 1.25000E-02 0.00000E+00
 -1       646 2.91667E-02 1.25000E-02 0.00000E+00
 -1       647 3.02083E-02 1.25000E-02 0.00000E+00
 -1       648 3.12500E-02 1.25000E-02 0.00000E+00
 -1       649 3.22917E-02 1.25000E-02 0.00000E+00
 -1       650 2.50000E-02 1.35417E-02 0.00000E+00
 -1       651 2.50000E-02 1.45833E-02 0.00000E+00
 -1       652 2.50000E-02 1.56250E-02 0.00000E+00
 -1       653 2.50000E-02 1.66667E-02 0.00000E+00
 -1       654 2.50000E-02 1.77083E-02 0.00000E+00
 -1       655 2.58333E-02 1.31250E-02 0.00000E+00
 -1       656 2.66667E-02 1.37500E-02 0.00000E+00
 -1       657 2.75000E-02 1.43750E-02 0.00000E+00
 -1       658 2.83333E-02 1.50000E-02 0.00000E+00
 -1       659 2.91667E-02 1.56250E-02 0.00000E+00
 -1       660 3.00000E-02 1.62500E-02 0.00000E+00
 -1       661 3.08333E-02 1.68750E-02 0.00000E+00
 -1       662 3.16667E-02 1.75000E-02 0.00000E+00
 -1       663 3.25000E-02 1.81250E-02 0.00000E+00
 -1       664 3.43750E-02 1.25000E-02 0.00000E+00
 -1       665 3.54167E-02 1.25000E-02 0.00000E+00
 -1       666 3.64583E-02 1.25000E-02 0.00000E+00
 -1       667 3.75000E-02 1.25000E-02 0.00000E+00
 -1       668 3.85417E-02 1.25000E-02 0.00000E+00
 -1       669 3.95833E-02 1.25000E-02 0.00000E+00
 -1       670 4.06250E-02 1.25000E-02 0.00000E+00
 -1       671 3.33333E-02 1.35417E-02 0.00000E+00
 -1       672 3.33333E-02 1.45833E-02 0.00000E+00
 -1       673 3.33333E-02 1.56250E-02 0.00000E+00
 -1       674 3.33333E-02 1.66667E-02 0.00000E+00
 -1       675 3.33333E-02 1.77083E-02 0.00000E+00
 -1       676 3.41667E-02 1.31250E-02 0.00000E+00
 -1       677 3.50000E-02 1.37500E-02 0.00000E+00
 -1       678 3.58333E-02 1.43750E-02 0.00000E+00
 -1       679 3.66667E-02 1.50000E-02 0.00000E+00
 -1       680 3.75000E-02 1.56250E-02 0.00000E+00
 -1       681 3.83333E-02 1.62500E-02 0.00000E+00
 -1       682 3.91667E-02 1.68750E-02 0.00000E+00
 -1       683 4.00000E-02 1.75000E-02 0.00000E+00
 -1       684 4.08333E-02 1.81250E-02 0.00000E+00
 -1       685 4.27083E-02 1.25000E-02 0.00000E+00
 -1       686 4.37500E-02 1.25000E-02 0.00000E+00
 -1       687 4.47917E-02 1.25000E-02 0.00000E+00
 -1       688 4.58333E-02 1.25000E-02 0.00000E+00
 -1       689 4.68750E-02 1.25000E-02 0.00000E+00
 -1       690 4.79167E-02 1.25000E-02 0.00000E+00
 -1       691 4.89583E-02 1.25000E-02 0.00000E+00
 -1       692 4.16667E-02 1.35417E-02 0.00000E+00
 -1       693 4.16667E-02 1.45833E-02 0.00000E+00
 -1       694 4.16667E-02 1.56250E-02 0.00000E+00
 -1       695 4.16667E-02 1.66667E-02 0.00000E+00
 -1       696 4.16667E-02 1.77083E-02 0.00000E+00
 -1       697 4.25000E-02 1.31250E-02 0.00000E+00
 -1       698 4.33333E-02 1.37500E-02 0.00000E+00
 -1       699 4.41667E-02 1.43750E-02 0.00000E+00
 -1       700 4.50000E-02 1.50000E-02 0.00000E+00
 -1       701 4.58333E-02 1.56250E-02 0.00000E+00
 -1       702 4.66667E-02 1.62500E-02 0.00000E+00
 -1       703 4.75000E-02 1.68750E-02 0.00000E+00
 -1       704 4.83333E-02 1.75000E-02 0.00000E+00
 -1       705 4.91667E-02 1.81250E-02 0.00000E+00
 -1       706 5.10417E-02 1.25000E-02 0.00000E+00
 -1       707 5.20833E-02 1.25000E-02 0.00000E+00
 -1       708 5.31250E-02 1.25000E-02 0.00000E+00
 -1       709 5.41667E-02 1.25000E-02 0.00000E+00
 -1       710 5.52083E-02 1.25000E-02 0.00000E+00
 -1       711 5.62500E-02 1.25000E-02 0.00000E+00
 -1       712 5.72917E-02 1.25000E-02 0.00000E+00
 -1       713 5.00000E-02 1.35417E-02 0.00000E+00
 -1       714 5.00000E-02 1.45833E-02 0.00000E+00
 -1       715 5.00000E-02 1.56250E-02 0.00000E+00
 -1       716 5.00000E-02 1.66667E-02 0.00000E+00
 -1       717 5.00000E-02 1.77083E-02 0.00000E+00
 -1       718 5.08333E-02 1.31250E-02 0.00000E+00
 -1       719 5.16667E-02 1.37500E-02 0.00000E+00
 -1       720 5.25000E-02 1.43750E-02 0.00000E+00
 -1       721 5.33333E-02 1.50000E-02 0.00000E+00
 -1       722 5.41667E-02 1.56250E-02 0.00000E+00
 -1       723 5.50000E-02 1.62500E-02 0.00000E+00
 -1       724 5.58333E-02 1.68750E-02 0.00000E+00
 -1       725 5.66667E-02 1.75000E-02 0.00000E+00
 -1       726 5.75000E-02 1.81250E-02 0.00000E+00
 -1       727 5.93750E-02 1.25000E-02 0.00000E+00
 -1       728 6.04167E-02 1.25000E-02 0.00000E+00
 -1       729 6.14583E-02 1.25000E-02 0.00000E+00
 -1       730 6.25000E-02 1.25000E-02 0.00000E+00
 -1       731 6.35417E-02 1.25000E-02 0.00000E+00
 -1       732 6.45833E-02 1.25000E-02 0.00000E+00
 -1       733 6.56250E-02 1.25000E-02 0.00000E+00
 -1       734 5.83333E-02 1.35417E-02 0.00000E+00
 -1       735 5.83333E-02 1.45833E-02 0.00000E+00
 -1       736 5.83333E-02 1.56250E-02 0.00000E+00
 -1       737 5.83333E-02 1.66667E-02 0.00000E+00
 -1       738 5.83333E-02 1.77083E-02 0.00000E+00
 -1       739 5.91667E-02 1.31250E-02 0.00000E+00
 -1       740 6.00000E-02 1.37500E-02 0.00000E+00
 -1       741 6.08333E-02 1.43750E-02 0.00000E+00
 -1       742 6.16667E-02 1.50000E-02 0.00000E+00
 -1       743 6.25000E-02 1.56250E-02 0.00000E+00
 -1       744 6.33333E-02 1.62500E-02 0.00000E+00
 -1       745 6.41667E-02 1.68750E-02 0.00000E+00
 -1       746 6.50000E-02 1.75000E-02 0.00000E+00
 -1       747 6.58333E-02 1.81250E-02 0.00000E+00
 -1       748 6.77083E-02 1.25000E-02 0.00000E+00
 -1       749 6.87500E-02 1.25000E-02 0.00000E+00
 -1       750 6.97917E-02 1.25000E-02 0.00000E+00
 -1       751 7.08333E-02 1.25000E-02 0.00000E+00
 -1       752 7.18750E-02 1.25000E-02 0.00000E+00
 -1       753 7.29167E-02 1.25000E-02 0.00000E+00
 -1       754 7.39583E-02 1.25000E-02 0.00000E+00
 -1       755 6.66667E-02 1.35417E-02 0.00000E+00
 -1       756 6.66667E-02 1.45833E-02 0.00000E+00
 -1       757 6.66667E-02 1.56250E-02 0.00000E+00
 -1       758 6.66667E-02 1.66667E-02 0.00000E+00
 -1       759 6.66667E-02 1.77083E-02 0.00000E+00