
 stresses (elem, integ.pnt.,sxx,syy,szz,sxy,sxz,syz) for set ELALL and time  0.1000000E+01

         1   1 -5.087960E+06 -5.996218E+05 -7.743910E+05 -1.154090E+05 -5.271135E+05  9.875361E+01
         1   2 -4.972377E+06  1.234443E+05 -3.326903E+05 -3.054692E+04 -3.460388E+05  1.715765E+01
         1   3 -5.086472E+06  2.431096E+04 -2.150152E+05  5.433048E+04 -1.649709E+05 -1.455105E+01
         1   4 -5.087975E+06 -5.996470E+05 -7.743946E+05  2.177415E-08 -5.271135E+05  6.562551E-11
         1   5 -4.972378E+06  1.234425E+05 -3.326905E+05 -7.708201E-08 -3.460388E+05  7.948561E-10
         1   6 -5.086475E+06  2.430537E+04 -2.150160E+05  1.111329E-08 -1.649709E+05  8.893082E-10
         1   7 -5.087960E+06 -5.996218E+05 -7.743910E+05  1.154090E+05 -5.271135E+05 -9.875361E+01
         1   8 -4.972377E+06  1.234443E+05 -3.326903E+05  3.054692E+04 -3.460388E+05 -1.715765E+01
         1   9 -5.086472E+06  2.431096E+04 -2.150152E+05 -5.433048E+04 -1.649709E+05  1.455105E+01
         1  10 -5.088261E+06 -5.996971E+05 -7.749174E+05 -1.154089E+05 -1.995824E-10  5.460066E-10
         1  11 -4.972506E+06  1.234118E+05 -3.329171E+05 -3.054691E+04 -2.602026E-09  6.303930E-10
         1  12 -5.086501E+06  2.430358E+04 -2.150668E+05  5.433048E+04 -3.923572E-09 -5.138933E-10
         1  13 -5.088275E+06 -5.997223E+05 -7.749210E+05 -1.259083E-08 -2.081670E-09  2.906876E-10
         1  14 -4.972507E+06  1.234100E+05 -3.329174E+05 -3.407875E-08 -2.176805E-09  5.961050E-10
         1  15 -5.086505E+06  2.429799E+04 -2.150676E+05 -1.687947E-08 -3.830038E-09 -4.922205E-11
         1  16 -5.088261E+06 -5.996971E+05 -7.749174E+05  1.154089E+05  2.893159E-10  1.693835E-10
         1  17 -4.972506E+06  1.234118E+05 -3.329171E+05  3.054691E+04  2.592879E-09  2.337829E-11
         1  18 -5.086501E+06  2.430358E+04 -2.150668E+05 -5.433048E+04  2.710839E-09  2.486790E-10
         1  19 -5.087960E+06 -5.996218E+05 -7.743910E+05 -1.154090E+05  5.271135E+05 -9.875361E+01
         1  20 -4.972377E+06  1.234443E+05 -3.326903E+05 -3.054692E+04  3.460388E+05 -1.715765E+01
         1  21 -5.086472E+06  2.431096E+04 -2.150152E+05  5.433048E+04  1.649709E+05  1.455105E+01
         1  22 -5.087975E+06 -5.996470E+05 -7.743946E+05  3.902106E-08  5.271135E+05  5.150855E-10
         1  23 -4.972378E+06  1.234425E+05 -3.326905E+05  8.923367E-09  3.460388E+05  4.525480E-10
         1  24 -5.086475E+06  2.430537E+04 -2.150160E+05  6.263819E-08  1.649709E+05 -1.062930E-09
         1  25 -5.087960E+06 -5.996218E+05 -7.743910E+05  1.154090E+05  5.271135E+05  9.875361E+01
         1  26 -4.972377E+06  1.234443E+05 -3.326903E+05  3.054692E+04  3.460388E+05  1.715765E+01
         1  27 -5.086472E+06  2.431096E+04 -2.150152E+05 -5.433048E+04  1.649709E+05 -1.455105E+01
         2   1 -5.043394E+06 -8.191039E+04 -1.771954E+05 -1.484033E+04 -1.302479E+05  3.137807E+00
         2   2 -5.026214E+06  1.696294E+04 -8.624187E+04 -3.595219E+03 -8.541155E+04  4.984804E-01
         2   3 -5.043119E+06  3.246541E+03 -5.279467E+04  7.649892E+03 -4.057404E+04 -5.038738E-01
         2   4 -5.043395E+06 -8.191081E+04 -1.771955E+05  3.985029E-08 -1.302479E+05  9.179169E-10
         2   5 -5.026214E+06  1.696291E+04 -8.624187E+04  1.657313E-08 -8.541155E+04  2.278380E-11
         2   6 -5.043119E+06  3.246430E+03 -5.279469E+04  3.411274E-08 -4.057404E+04 -5.980002E-10
         2   7 -5.043394E+06 -8.191039E+04 -1.771954E+05  1.484033E+04 -1.302479E+05 -3.137807E+00
         2   8 -5.026214E+06  1.696294E+04 -8.624187E+04  3.595219E+03 -8.541155E+04 -4.984804E-01
         2   9 -5.043119E+06  3.246541E+03 -5.279467E+04 -7.649892E+03 -4.057404E+04  5.038738E-01
         2  10 -5.043413E+06 -8.191499E+04 -1.772275E+05 -1.484033E+04  1.138499E-09  4.675338E-10
         2  11 -5.026222E+06  1.696096E+04 -8.625569E+04 -3.595219E+03 -1.839542E-09  8.505001E-10
         2  12 -5.043120E+06  3.246094E+03 -5.279779E+04  7.649892E+03 -1.036093E-09 -8.239773E-10
         2  13 -5.043413E+06 -8.191541E+04 -1.772276E+05  5.549389E-09  4.630180E-11 -7.711932E-11
         2  14 -5.026222E+06  1.696094E+04 -8.625569E+04  3.377058E-08 -5.090180E-09  9.155394E-11
         2  15 -5.043121E+06  3.245984E+03 -5.279781E+04  4.049661E-08  7.349843E-09 -5.944444E-10
         2  16 -5.043413E+06 -8.191499E+04 -1.772275E+05  1.484033E+04  2.286595E-09  6.214620E-10
         2  17 -5.026222E+06  1.696096E+04 -8.625569E+04  3.595219E+03 -1.002055E-09 -1.578054E-10
         2  18 -5.043120E+06  3.246094E+03 -5.279779E+04 -7.649892E+03  5.362140E-10 -1.074707E-09
         2  19 -5.043394E+06 -8.191039E+04 -1.771954E+05 -1.484033E+04  1.302479E+05 -3.137807E+00
         2  20 -5.026214E+06  1.696294E+04 -8.624187E+04 -3.595219E+03  8.541155E+04 -4.984804E-01
         2  21 -5.043119E+06  3.246541E+03 -5.279467E+04  7.649892E+03  4.057404E+04  5.038738E-01
         2  22 -5.043395E+06 -8.191081E+04 -1.771955E+05  9.158042E-08  1.302479E+05 -8.567640E-10
         2  23 -5.026214E+06  1.696291E+04 -8.624187E+04  5.095970E-08  8.541155E+04  7.418783E-10
         2  24 -5.043119E+06  3.246430E+03 -5.279469E+04  8.340717E-08  4.057404E+04 -3.885121E-10
         2  25 -5.043394E+06 -8.191039E+04 -1.771954E+05  1.484033E+04  1.302479E+05  3.137807E+00
         2  26 -5.026214E+06  1.696294E+04 -8.624187E+04  3.595219E+03  8.541155E+04  4.984804E-01
         2  27 -5.043119E+06  3.246541E+03 -5.279467E+04 -7.649892E+03  4.057404E+04 -5.038738E-01
         3   1 -5.036774E+06 -1.110525E+04 -4.198307E+04 -1.784057E+03 -3.211129E+04  9.299941E-02
         3   2 -5.034088E+06  2.329070E+03 -2.210072E+04 -3.456834E+02 -2.090030E+04  1.172854E-02
         3   3 -5.036720E+06  4.055588E+02 -1.340051E+04  1.092661E+03 -9.689333E+03 -1.718676E-02
         3   4 -5.036774E+06 -1.110526E+04 -4.198307E+04  5.150974E-08 -3.211129E+04 -9.619298E-10
         3   5 -5.034088E+06  2.329070E+03 -2.210072E+04  5.479204E-08 -2.090030E+04 -1.388323E-12
         3   6 -5.036720E+06  4.055566E+02 -1.340051E+04  7.093978E-08 -9.689333E+03  1.088553E-09
         3   7 -5.036774E+06 -1.110525E+04 -4.198307E+04  1.784057E+03 -3.211129E+04 -9.299941E-02
         3   8 -5.034088E+06  2.329070E+03 -2.210072E+04  3.456834E+02 -2.090030E+04 -1.172854E-02
         3   9 -5.036720E+06  4.055588E+02 -1.340051E+04 -1.092661E+03 -9.689333E+03  1.718676E-02
         3  10 -5.036775E+06 -1.110553E+04 -4.198502E+04 -1.784057E+03 -1.299959E-09 -2.176760E-09
         3  11 -5.034088E+06  2.328952E+03 -2.210155E+04 -3.456834E+02  3.481639E-09  2.081727E-11
         3  12 -5.036720E+06  4.055334E+02 -1.340069E+04  1.092661E+03  1.998500E-09 -4.766189E-10
         3  13 -5.036775E+06 -1.110554E+04 -4.198503E+04 -1.722463E-08  1.137501E-10 -9.094899E-10
         3  14 -5.034088E+06  2.328952E+03 -2.210155E+04 -5.388194E-09  3.224295E-09 -1.744500E-10
         3  15 -5.036720E+06  4.055311E+02 -1.340069E+04  3.655069E-08  9.406981E-10  4.517836E-10
         3  16 -5.036775E+06 -1.110553E+04 -4.198502E+04  1.784057E+03 -8.566711E-10 -6.053709E-10
         3  17 -5.034088E+06  2.328952E+03 -2.210155E+04  3.456834E+02 -8.964134E-09 -8.287075E-11
         3  18 -5.036720E+06  4.055334E+02 -1.340069E+04 -1.092661E+03 -1.828523E-09  1.440426E-09
         3  19 -5.036774E+06 -1.110525E+04 -4.198307E+04 -1.784057E+03  3.211129E+04 -9.299941E-02
         3  20 -5.034088E+06  2.329070E+03 -2.210072E+04 -3.456834E+02  2.090030E+04 -1.172853E-02
         3  21 -5.036720E+06  4.055588E+02 -1.340051E+04  1.092661E+03  9.689333E+03  1.718676E-02
         3  22 -5.036774E+06 -1.110526E+04 -4.198307E+04  6.877550E-08  3.211129E+04 -9.639251E-10
         3  23 -5.034088E+06  2.329070E+03 -2.210072E+04 -6.556423E-08  2.090030E+04  1.107887E-10
         3  24 -5.036720E+06  4.055566E+02 -1.340051E+04 -1.507484E-08  9.689333E+03 -4.288298E-10
         3  25 -5.036774E+06 -1.110525E+04 -4.198307E+04  1.784057E+03  3.211129E+04  9.299941E-02
         3  26 -5.034088E+06  2.329070E+03 -2.210072E+04  3.456834E+02  2.090030E+04  1.172853E-02
         3  27 -5.036720E+06  4.055588E+02 -1.340051E+04 -1.092661E+03  9.689333E+03 -1.718676E-02
         4   1 -5.035764E+06 -1.480839E+03 -1.064691E+04 -1.977250E+02 -7.531520E+03  2.417456E-03
         4   2 -5.035263E+06  3.480153E+02 -6.462839E+03 -1.536766E+01 -4.299025E+03  1.072487E-04
         4   3 -5.035754E+06 -8.661865E+01 -4.961998E+03  1.669921E+02 -1.066473E+03 -2.891050E-04
         4   4 -5.035764E+06 -1.480839E+03 -1.064691E+04  6.939891E-08 -7.531520E+03 -5.096432E-11
         4   5 -5.035263E+06  3.480153E+02 -6.462839E+03 -2.635973E-08 -4.299025E+03 -1.081509E-09
         4   6 -5.035754E+06 -8.661870E+01 -4.961998E+03 -1.465637E-08 -1.066473E+03  5.663845E-10
         4   7 -5.035764E+06 -1.480839E+03 -1.064691E+04  1.977250E+02 -7.531520E+03 -2.417454E-03
         4   8 -5.035263E+06  3.480153E+02 -6.462839E+03  1.536766E+01 -4.299025E+03 -1.072530E-04
         4   9 -5.035754E+06 -8.661865E+01 -4.961998E+03 -1.669921E+02 -1.066473E+03  2.891089E-04
         4  10 -5.035764E+06 -1.480854E+03 -1.064702E+04 -1.977250E+02  1.463715E-09 -4.377898E-10
         4  11 -5.035263E+06  3.480103E+02 -6.462874E+03 -1.536766E+01  2.882814E-09 -1.213478E-10
         4  12 -5.035754E+06 -8.661896E+01 -4.962001E+03  1.669921E+02 -7.461839E-10 -4.690749E-10
         4  13 -5.035764E+06 -1.480854E+03 -1.064702E+04  5.978338E-10 -4.593819E-09  3.570236E-11
         4  14 -5.035263E+06  3.480103E+02 -6.462874E+03 -5.669271E-10  2.276817E-10 -6.404967E-10
         4  15 -5.035754E+06 -8.661901E+01 -4.962001E+03 -2.750982E-08 -1.086785E-09  6.120857E-11
         4  16 -5.035764E+06 -1.480854E+03 -1.064702E+04  1.977250E+02 -4.580536E-09  2.356398E-10
         4  17 -5.035263E+06  3.480103E+02 -6.462874E+03  1.536766E+01  1.921876E-09 -8.939994E-10
         4  18 -5.035754E+06 -8.661896E+01 -4.962001E+03 -1.669921E+02  3.698660E-09 -3.989500E-10
         4  19 -5.035764E+06 -1.480839E+03 -1.064691E+04 -1.977250E+02  7.531520E+03 -2.417457E-03
         4  20 -5.035263E+06  3.480153E+02 -6.462839E+03 -1.536766E+01  4.299025E+03 -1.072463E-04
         4  21 -5.035754E+06 -8.661865E+01 -4.961998E+03  1.669921E+02  1.066473E+03  2.891087E-04
         4  22 -5.035764E+06 -1.480839E+03 -1.064691E+04  3.494285E-08  7.531520E+03 -5.273780E-11
         4  23 -5.035263E+06  3.480153E+02 -6.462839E+03  8.033470E-09  4.299025E+03  4.340957E-10
         4  24 -5.035754E+06 -8.661870E+01 -4.961998E+03  3.700041E-08  1.066473E+03 -4.128308E-10
         4  25 -5.035764E+06 -1.480839E+03 -1.064691E+04  1.977250E+02  7.531520E+03  2.417455E-03
         4  26 -5.035263E+06  3.480153E+02 -6.462839E+03  1.536766E+01  4.299025E+03  1.072472E-04
         4  27 -5.035754E+06 -8.661865E+01 -4.961998E+03 -1.669921E+02  1.066473E+03 -2.891076E-04
         5   1 -5.035709E+06 -1.559738E+02 -4.751966E+03 -1.239676E+02 -1.927192E+02  3.878420E-05
         5   2 -5.035318E+06  2.704699E+02 -5.299488E+03  1.490781E+01  2.455886E+03  5.943448E-05
         5   3 -5.035715E+06 -1.059492E+03 -8.020993E+03  1.537833E+02  5.104487E+03  1.274315E-03
         5   4 -5.035709E+06 -1.559738E+02 -4.751966E+03  2.472429E-08 -1.927192E+02  6.367231E-10
         5   5 -5.035318E+06  2.704699E+02 -5.299488E+03  3.617213E-09  2.455886E+03  3.164159E-10
         5   6 -5.035715E+06 -1.059492E+03 -8.020993E+03 -1.382737E-09  5.104487E+03  8.841378E-10
         5   7 -5.035709E+06 -1.559738E+02 -4.751966E+03  1.239676E+02 -1.927192E+02 -3.878158E-05
         5   8 -5.035318E+06  2.704699E+02 -5.299488E+03 -1.490781E+01  2.455886E+03 -5.943675E-05
         5   9 -5.035715E+06 -1.059492E+03 -8.020993E+03 -1.537833E+02  5.104487E+03 -1.274314E-03
         5  10 -5.035709E+06 -1.559738E+02 -4.751967E+03 -1.239676E+02 -2.067361E-09  3.506542E-10
         5  11 -5.035318E+06  2.704683E+02 -5.299499E+03  1.490781E+01  1.123461E-09  3.260710E-11
         5  12 -5.035715E+06 -1.059499E+03 -8.021043E+03  1.537833E+02  5.981996E-11 -2.764570E-10
         5  13 -5.035709E+06 -1.559739E+02 -4.751967E+03 -9.689820E-09  5.894634E-10  3.893162E-10
         5  14 -5.035318E+06  2.704683E+02 -5.299499E+03 -2.217977E-08 -5.146205E-09  2.115088E-10
         5  15 -5.035715E+06 -1.059499E+03 -8.021043E+03 -5.186211E-08 -1.722630E-09  6.385386E-11
         5  16 -5.035709E+06 -1.559738E+02 -4.751967E+03  1.239676E+02 -2.345608E-09  9.719167E-10
         5  17 -5.035318E+06  2.704683E+02 -5.299499E+03 -1.490781E+01  8.242288E-12 -1.398715E-10
         5  18 -5.035715E+06 -1.059499E+03 -8.021043E+03 -1.537833E+02 -1.033496E-09  3.790200E-11
         5  19 -5.035709E+06 -1.559738E+02 -4.751966E+03 -1.239676E+02  1.927192E+02 -3.878288E-05
         5  20 -5.035318E+06  2.704699E+02 -5.299488E+03  1.490781E+01 -2.455886E+03 -5.943322E-05
         5  21 -5.035715E+06 -1.059492E+03 -8.020993E+03  1.537833E+02 -5.104487E+03 -1.274313E-03
         5  22 -5.035709E+06 -1.559738E+02 -4.751966E+03  7.622814E-08  1.927192E+02 -2.232183E-10
         5  23 -5.035318E+06  2.704699E+02 -5.299488E+03  2.080543E-08 -2.455886E+03 -1.767924E-10
         5  24 -5.035715E+06 -1.059492E+03 -8.020993E+03 -6.683349E-09 -5.104487E+03 -1.074718E-09
         5  25 -5.035709E+06 -1.559738E+02 -4.751966E+03  1.239676E+02  1.927192E+02  3.878104E-05
         5  26 -5.035318E+06  2.704699E+02 -5.299488E+03 -1.490781E+01 -2.455886E+03  5.943229E-05
         5  27 -5.035715E+06 -1.059492E+03 -8.020993E+03 -1.537833E+02 -5.104487E+03  1.274309E-03
         6   1 -5.036387E+06  2.793346E+02 -9.905008E+03 -7.824182E+02  6.713141E+03 -8.526668E-03
         6   2 -5.034491E+06  1.673460E+03 -1.601810E+04  2.496175E+02  1.483662E+04  6.012060E-03
         6   3 -5.036425E+06 -7.965726E+03 -3.021027E+04  1.281642E+03  2.295991E+04  4.776951E-02
         6   4 -5.036387E+06  2.793334E+02 -9.905008E+03  6.884214E-08  6.713141E+03  1.052368E-09
         6   5 -5.034491E+06  1.673460E+03 -1.601810E+04  6.085654E-08  1.483662E+04 -2.852921E-10
         6   6 -5.036425E+06 -7.965729E+03 -3.021027E+04  5.502023E-08  2.295991E+04  5.780125E-10
         6   7 -5.036387E+06  2.793346E+02 -9.905008E+03  7.824182E+02  6.713141E+03  8.526671E-03
         6   8 -5.034491E+06  1.673460E+03 -1.601810E+04 -2.496175E+02  1.483662E+04 -6.012063E-03
         6   9 -5.036425E+06 -7.965726E+03 -3.021027E+04 -1.281642E+03  2.295991E+04 -4.776951E-02
         6  10 -5.036387E+06  2.793224E+02 -9.905093E+03 -7.824182E+02 -2.263129E-10 -3.412715E-10
         6  11 -5.034491E+06  1.673400E+03 -1.601851E+04  2.496175E+02  2.775564E-10  1.111520E-09
         6  12 -5.036426E+06 -7.965869E+03 -3.021127E+04  1.281642E+03 -2.028320E-09  1.029981E-09
         6  13 -5.036387E+06  2.793212E+02 -9.905093E+03  2.584850E-08 -3.006919E-09 -1.213991E-10
         6  14 -5.034491E+06  1.673400E+03 -1.601851E+04  3.507617E-08  6.196302E-10  1.153493E-10
         6  15 -5.036426E+06 -7.965872E+03 -3.021127E+04  6.150038E-08 -8.787303E-10  9.707065E-10
         6  16 -5.036387E+06  2.793224E+02 -9.905093E+03  7.824182E+02 -1.310665E-09  1.004141E-10
         6  17 -5.034491E+06  1.673400E+03 -1.601851E+04 -2.496175E+02 -1.270081E-09 -8.718180E-10
         6  18 -5.036426E+06 -7.965869E+03 -3.021127E+04 -1.281642E+03  4.643664E-09  6.459442E-10
         6  19 -5.036387E+06  2.793346E+02 -9.905008E+03 -7.824182E+02 -6.713141E+03  8.526671E-03
         6  20 -5.034491E+06  1.673460E+03 -1.601810E+04  2.496175E+02 -1.483662E+04 -6.012059E-03
         6  21 -5.036425E+06 -7.965726E+03 -3.021027E+04  1.281642E+03 -2.295991E+04 -4.776950E-02
         6  22 -5.036387E+06  2.793334E+02 -9.905008E+03  7.741950E-08 -6.713141E+03 -1.517365E-09
         6  23 -5.034491E+06  1.673460E+03 -1.601810E+04  4.367870E-08 -1.483662E+04  7.767188E-10
         6  24 -5.036425E+06 -7.965729E+03 -3.021027E+04  8.839734E-08 -2.295991E+04  1.365188E-09
         6  25 -5.036387E+06  2.793346E+02 -9.905008E+03  7.824182E+02 -6.713141E+03 -8.526673E-03
         6  26 -5.034491E+06  1.673460E+03 -1.601810E+04 -2.496175E+02 -1.483662E+04  6.012058E-03
         6  27 -5.036425E+06 -7.965726E+03 -3.021027E+04 -1.281642E+03 -2.295991E+04  4.776951E-02
         7   1 -5.040974E+06  2.327544E+03 -3.794321E+04 -5.486681E+03  2.904601E+04 -2.587100E-01
         7   2 -5.028847E+06  1.216785E+04 -6.190657E+04  2.579422E+03  6.122787E+04  2.563776E-01
         7   3 -5.041173E+06 -5.875603E+04 -1.271351E+05  1.064564E+04  9.340960E+04  1.614270E+00
         7   4 -5.040974E+06  2.327487E+03 -3.794322E+04  5.090790E-08  2.904601E+04 -3.052544E-10
         7   5 -5.028847E+06  1.216783E+04 -6.190657E+04 -3.749593E-08  6.122787E+04 -1.555627E-09
         7   6 -5.041173E+06 -5.875625E+04 -1.271351E+05  3.070135E-09  9.340960E+04 -1.586547E-10
         7   7 -5.040974E+06  2.327544E+03 -3.794321E+04  5.486681E+03  2.904601E+04  2.587100E-01
         7   8 -5.028847E+06  1.216785E+04 -6.190657E+04 -2.579422E+03  6.122787E+04 -2.563776E-01
         7   9 -5.041173E+06 -5.875603E+04 -1.271351E+05 -1.064564E+04  9.340960E+04 -1.614270E+00
         7  10 -5.040975E+06  2.327315E+03 -3.794481E+04 -5.486681E+03  1.693233E-09  3.450741E-10
         7  11 -5.028851E+06  1.216683E+04 -6.191367E+04  2.579422E+03 -6.085887E-09 -7.991895E-10
         7  12 -5.041183E+06 -5.875840E+04 -1.271516E+05  1.064564E+04 -6.268116E-10  7.283792E-10
         7  13 -5.040975E+06  2.327258E+03 -3.794482E+04  7.882374E-09 -3.979093E-09  4.601335E-10
         7  14 -5.028851E+06  1.216682E+04 -6.191367E+04 -2.030913E-08  8.477451E-10 -1.040117E-09
         7  15 -5.041183E+06 -5.875861E+04 -1.271517E+05 -9.802146E-09  1.761698E-09  4.209425E-11
         7  16 -5.040975E+06  2.327315E+03 -3.794481E+04  5.486681E+03  1.732118E-09  3.977218E-11
         7  17 -5.028851E+06  1.216683E+04 -6.191367E+04 -2.579422E+03  1.346739E-09 -7.875929E-10
         7  18 -5.041183E+06 -5.875840E+04 -1.271516E+05 -1.064564E+04  1.564414E-09 -2.842862E-10
         7  19 -5.040974E+06  2.327544E+03 -3.794321E+04 -5.486681E+03 -2.904601E+04  2.587100E-01
         7  20 -5.028847E+06  1.216785E+04 -6.190657E+04  2.579422E+03 -6.122787E+04 -2.563776E-01
         7  21 -5.041173E+06 -5.875603E+04 -1.271351E+05  1.064564E+04 -9.340960E+04 -1.614270E+00
         7  22 -5.040974E+06  2.327487E+03 -3.794322E+04  1.195925E-07 -2.904601E+04  1.180679E-09
         7  23 -5.028847E+06  1.216783E+04 -6.190657E+04  3.127621E-08 -6.122787E+04 -8.732975E-10
         7  24 -5.041173E+06 -5.875625E+04 -1.271351E+05  1.067739E-08 -9.340960E+04  7.150775E-10
         7  25 -5.040974E+06  2.327544E+03 -3.794321E+04  5.486681E+03 -2.904601E+04 -2.587100E-01
         7  26 -5.028847E+06  1.216785E+04 -6.190657E+04 -2.579422E+03 -6.122787E+04  2.563776E-01
         7  27 -5.041173E+06 -5.875603E+04 -1.271351E+05 -1.064564E+04 -9.340960E+04  1.614270E+00
         8   1 -5.072075E+06  1.743552E+04 -1.542649E+05 -3.897101E+04  1.183262E+05 -7.486135E+00
         8   2 -4.990239E+06  8.854512E+04 -2.387091E+05  2.190959E+04  2.482059E+05  8.827259E+00
         8   3 -5.073165E+06 -4.301239E+05 -5.556064E+05  8.278295E+04  3.780906E+05  5.080980E+01
         8   4 -5.072077E+06  1.743264E+04 -1.542653E+05  3.802145E-08  1.183262E+05  6.222238E-10
         8   5 -4.990240E+06  8.854421E+04 -2.387092E+05  5.081867E-09  2.482059E+05  1.565261E-09
         8   6 -5.073172E+06 -4.301369E+05 -5.556082E+05 -7.430114E-09  3.780906E+05  4.626245E-10
         8   7 -5.072075E+06  1.743552E+04 -1.542649E+05  3.897101E+04  1.183262E+05  7.486135E+00
         8   8 -4.990239E+06  8.854512E+04 -2.387091E+05 -2.190959E+04  2.482059E+05 -8.827259E+00
         8   9 -5.073165E+06 -4.301239E+05 -5.556064E+05 -8.278295E+04  3.780906E+05 -5.080980E+01
         8  10 -5.072091E+06  1.743172E+04 -1.542914E+05 -3.897101E+04 -9.345203E-11  6.906917E-10
         8  11 -4.990306E+06  8.852842E+04 -2.388258E+05  2.190959E+04  9.710668E-10  3.920095E-10
         8  12 -5.073319E+06 -4.301627E+05 -5.558772E+05  8.278294E+04  3.785513E-09  6.417850E-11
         8  13 -5.072092E+06  1.742885E+04 -1.542919E+05  2.081540E-08  3.143072E-26  7.085924E-10
         8  14 -4.990306E+06  8.852751E+04 -2.388259E+05 -3.791362E-08  2.373403E-09  1.382454E-10
         8  15 -5.073327E+06 -4.301757E+05 -5.558791E+05 -1.064369E-08 -2.070948E-09  1.269504E-10
         8  16 -5.072091E+06  1.743172E+04 -1.542914E+05  3.897101E+04  9.373375E-10  8.753590E-10
         8  17 -4.990306E+06  8.852842E+04 -2.388258E+05 -2.190959E+04 -4.330315E-09  2.034270E-10
         8  18 -5.073319E+06 -4.301627E+05 -5.558772E+05 -8.278294E+04  1.267704E-09 -5.561609E-10
         8  19 -5.072075E+06  1.743552E+04 -1.542649E+05 -3.897101E+04 -1.183262E+05  7.486135E+00
         8  20 -4.990239E+06  8.854512E+04 -2.387091E+05  2.190959E+04 -2.482059E+05 -8.827259E+00
         8  21 -5.073165E+06 -4.301239E+05 -5.556064E+05  8.278295E+04 -3.780906E+05 -5.080980E+01
         8  22 -5.072077E+06  1.743264E+04 -1.542653E+05  3.609329E-09 -1.183262E+05  8.946252E-10
         8  23 -4.990240E+06  8.854421E+04 -2.387092E+05 -2.932407E-08 -2.482059E+05 -7.985441E-10
         8  24 -5.073172E+06 -4.301369E+05 -5.556082E+05 -1.604610E-08 -3.780906E+05 -3.125395E-10
         8  25 -5.072075E+06  1.743552E+04 -1.542649E+05  3.897101E+04 -1.183262E+05 -7.486135E+00
         8  26 -4.990239E+06  8.854512E+04 -2.387091E+05 -2.190959E+04 -2.482059E+05  8.827259E+00
         8  27 -5.073165E+06 -4.301239E+05 -5.556064E+05 -8.278295E+04 -3.780906E+05  5.080980E+01
         9   1  2.249552E+06  8.005264E+06  2.147140E+06 -1.497314E+06  1.016494E+05  8.268915E+05
         9   2  1.780386E+06  6.839855E+06  1.444792E+06 -1.347214E+06  3.404938E+05  3.877832E+05
         9   3  1.463171E+06  5.773086E+06  1.064794E+06 -1.385292E+06  3.957633E+05 -5.027232E+04
         9   4  1.700899E+05 -4.634240E+05  1.815755E+05 -1.365987E+06  1.036937E+05  1.237112E+05
         9   5  5.203285E+04 -4.760271E+05  9.278626E+04 -1.272206E+06  3.419680E+05  7.752037E+04
         9   6  1.911346E+04 -4.581813E+05  5.589005E+04 -1.366545E+06  3.957489E+05  3.147596E+04
         9   7 -1.914093E+06 -8.865342E+06 -1.786970E+06 -1.236339E+06  1.054657E+05 -5.700456E+05
         9   8 -1.679305E+06 -7.740166E+06 -1.261101E+06 -1.198007E+06  3.433806E+05 -2.292148E+05
         9   9 -1.426905E+06 -6.651141E+06 -9.540649E+05 -1.347911E+06  3.957392E+05  1.124371E+05
         9  10  2.249359E+06  8.004535E+06  2.145850E+06 -1.497382E+06  2.115699E-09  7.565054E-12
         9  11  1.780221E+06  6.839663E+06  1.444293E+06 -1.347320E+06  2.847725E-09  4.258541E-10
         9  12  1.463002E+06  5.773042E+06  1.064495E+06 -1.385276E+06 -1.001693E-09  5.506018E-10
         9  13  1.700742E+05 -4.634434E+05  1.815264E+05 -1.365997E+06  4.299568E-09 -2.155913E-11
         9  14  5.190562E+04 -4.760650E+05  9.255501E+04 -1.272227E+06  1.079545E-09 -3.756690E-11
         9  15  1.894502E+04 -4.582244E+05  5.559382E+04 -1.366555E+06 -1.963899E-10 -6.137593E-11
         9  16 -1.914194E+06 -8.865698E+06 -1.787609E+06 -1.236290E+06 -3.280583E-09  1.938790E-11
         9  17 -1.679445E+06 -7.740254E+06 -1.261422E+06 -1.197943E+06  5.413879E-09 -6.054081E-10
         9  18 -1.427077E+06 -6.651196E+06 -9.543835E+05 -1.347947E+06  3.164721E-09 -6.677705E-10
         9  19  2.249552E+06  8.005264E+06  2.147140E+06 -1.497314E+06 -1.016494E+05 -8.268915E+05
         9  20  1.780386E+06  6.839855E+06  1.444792E+06 -1.347214E+06 -3.404938E+05 -3.877832E+05
         9  21  1.463171E+06  5.773086E+06  1.064794E+06 -1.385292E+06 -3.957633E+05  5.027232E+04
         9  22  1.700899E+05 -4.634240E+05  1.815755E+05 -1.365987E+06 -1.036937E+05 -1.237112E+05
         9  23  5.203285E+04 -4.760271E+05  9.278626E+04 -1.272206E+06 -3.419680E+05 -7.752037E+04
         9  24  1.911346E+04 -4.581813E+05  5.589005E+04 -1.366545E+06 -3.957489E+05 -3.147596E+04
         9  25 -1.914093E+06 -8.865342E+06 -1.786970E+06 -1.236339E+06 -1.054657E+05  5.700456E+05
         9  26 -1.679305E+06 -7.740166E+06 -1.261101E+06 -1.198007E+06 -3.433806E+05  2.292148E+05
         9  27 -1.426905E+06 -6.651141E+06 -9.540649E+05 -1.347911E+06 -3.957392E+05 -1.124371E+05
        10   1  1.293754E+06  5.057006E+06  9.183378E+05 -1.394917E+06  3.664552E+05 -5.881090E+04
        10   2  1.024261E+06  3.934879E+06  6.984077E+05 -1.285552E+06  3.171209E+05 -1.233362E+05
        10   3  7.763087E+05  2.827507E+06  5.255931E+05 -1.377485E+06  2.460142E+05 -1.879886E+05
        10   4  1.836994E+04 -4.621885E+05  4.585974E+04 -1.369481E+06  3.663342E+05  2.352410E+04
        10   5  1.398711E+04 -4.633273E+05  3.623888E+04 -1.268795E+06  3.165985E+05  5.346881E+03
        10   6  2.324559E+04 -4.589003E+05  4.174763E+04 -1.369488E+06  2.450108E+05 -1.306638E+04
        10   7 -1.258520E+06 -5.951188E+06 -8.273605E+05 -1.344211E+06  3.662191E+05  1.051578E+05
        10   8 -9.971955E+05 -4.842167E+06 -6.262581E+05 -1.252117E+06  3.160804E+05  1.331587E+05
        10   9 -7.303039E+05 -3.734401E+06 -4.421763E+05 -1.361508E+06  2.440082E+05  1.609711E+05
        10  10  1.293609E+06  5.056966E+06  9.180793E+05 -1.394900E+06 -1.112810E-10  3.952980E-09
        10  11  1.024149E+06  3.934836E+06  6.981907E+05 -1.285521E+06  4.880029E-09 -1.220869E-09
        10  12  7.762345E+05  2.827454E+06  5.254138E+05 -1.377448E+06 -1.472480E-10 -6.996170E-09
        10  13  1.822569E+04 -4.622252E+05  4.560649E+04 -1.369488E+06 -5.195279E-09  1.131210E-11
        10  14  1.387949E+04 -4.633542E+05  3.605050E+04 -1.268797E+06  2.829078E-10 -6.300433E-11
        10  15  2.318111E+04 -4.589166E+05  4.163457E+04 -1.369485E+06  3.595631E-10 -2.353946E-10
        10  16 -1.258667E+06 -5.951236E+06 -8.276338E+05 -1.344242E+06  2.093733E-09 -3.547668E-09
        10  17 -9.973077E+05 -4.842213E+06 -6.264798E+05 -1.252151E+06  1.033835E-09  9.892319E-10
        10  18 -7.303750E+05 -3.734445E+06 -4.423375E+05 -1.361540E+06  2.902384E-09  6.760776E-09
        10  19  1.293754E+06  5.057006E+06  9.183378E+05 -1.394917E+06 -3.664552E+05  5.881090E+04
        10  20  1.024261E+06  3.934879E+06  6.984077E+05 -1.285552E+06 -3.171209E+05  1.233362E+05
        10  21  7.763087E+05  2.827507E+06  5.255931E+05 -1.377485E+06 -2.460142E+05  1.879886E+05
        10  22  1.836994E+04 -4.621885E+05  4.585974E+04 -1.369481E+06 -3.663342E+05 -2.352410E+04
        10  23  1.398711E+04 -4.633273E+05  3.623888E+04 -1.268795E+06 -3.165985E+05 -5.346881E+03
        10  24  2.324559E+04 -4.589003E+05  4.174763E+04 -1.369488E+06 -2.450108E+05  1.306638E+04
        10  25 -1.258520E+06 -5.951188E+06 -8.273605E+05 -1.344211E+06 -3.662191E+05 -1.051578E+05
        10  26 -9.971955E+05 -4.842167E+06 -6.262581E+05 -1.252117E+06 -3.160804E+05 -1.331587E+05
        10  27 -7.303039E+05 -3.734401E+06 -4.421763E+05 -1.361508E+06 -2.440082E+05 -1.609711E+05
        11   1  6.189141E+05  2.131340E+06  4.255329E+05 -1.380857E+06  1.972289E+05 -1.952038E+05
        11   2  3.944053E+05  1.007559E+06  2.929571E+05 -1.227387E+06  1.136767E+05 -2.412553E+05
        11   3  2.389940E+05 -9.356865E+04  2.070594E+05 -1.276780E+06  2.764014E+04 -2.873183E+05
        11   4  2.686713E+04 -4.548293E+05  4.899282E+04 -1.369858E+06  1.961330E+05 -2.028406E+04
        11   5  5.806518E+04 -4.644668E+05  7.916675E+04 -1.268099E+06  1.124855E+05 -6.117791E+04
        11   6  1.575427E+05 -4.536866E+05  1.523558E+05 -1.369139E+06  2.635859E+04 -1.021538E+05
        11   7 -5.654718E+05 -3.034203E+06 -3.275446E+05 -1.358890E+06  1.950402E+05  1.539394E+05
        11   8 -2.783498E+05 -1.934235E+06 -1.345363E+05 -1.308705E+06  1.112688E+05  1.184910E+05
        11   9  7.613644E+04 -8.135820E+05  9.778324E+04 -1.461442E+06  2.502142E+04  8.290758E+04
        11  10  6.188623E+05  2.131288E+06  4.253889E+05 -1.380826E+06 -1.747212E-09  1.931915E-09
        11  11  3.943759E+05  1.007493E+06  2.928238E+05 -1.227365E+06 -4.784524E-10 -2.289815E-10
        11  12  2.389710E+05 -9.365747E+04  2.069028E+05 -1.276774E+06  3.166982E-09 -2.512559E-09
        11  13  2.682573E+04 -4.548401E+05  4.891982E+04 -1.369855E+06  2.390208E-09 -3.348938E-11
        11  14  5.805062E+04 -4.644741E+05  7.913601E+04 -1.268093E+06  4.073479E-09  7.561120E-11
        11  15  1.575392E+05 -4.536980E+05  1.523349E+05 -1.369137E+06  4.440501E-09  8.962577E-11
        11  16 -5.655191E+05 -3.034239E+06 -3.276611E+05 -1.358914E+06  6.522161E-09 -2.153721E-09
        11  17 -2.783669E+05 -1.934253E+06 -1.345862E+05 -1.308715E+06  1.180594E-09  3.163853E-10
        11  18  7.613392E+04 -8.135896E+05  9.776910E+04 -1.461444E+06 -4.513024E-10  2.545040E-09
        11  19  6.189141E+05  2.131340E+06  4.255329E+05 -1.380857E+06 -1.972289E+05  1.952038E+05
        11  20  3.944053E+05  1.007559E+06  2.929571E+05 -1.227387E+06 -1.136767E+05  2.412553E+05
        11  21  2.389940E+05 -9.356865E+04  2.070594E+05 -1.276780E+06 -2.764014E+04  2.873183E+05
        11  22  2.686713E+04 -4.548293E+05  4.899282E+04 -1.369858E+06 -1.961330E+05  2.028406E+04
        11  23  5.806518E+04 -4.644668E+05  7.916675E+04 -1.268099E+06 -1.124855E+05  6.117791E+04
        11  24  1.575427E+05 -4.536866E+05  1.523558E+05 -1.369139E+06 -2.635859E+04  1.021538E+05
        11  25 -5.654718E+05 -3.034203E+06 -3.275446E+05 -1.358890E+06 -1.950402E+05 -1.539394E+05
        11  26 -2.783498E+05 -1.934235E+06 -1.345363E+05 -1.308705E+06 -1.112688E+05 -1.184910E+05
        11  27  7.613644E+04 -8.135820E+05  9.778324E+04 -1.461442E+06 -2.502142E+04 -8.290758E+04
        12   1 -5.773343E+06 -1.703377E+06 -1.100293E+06 -2.002721E+06 -6.156829E+05 -2.264465E+05
        12   2 -5.579814E+06 -7.793490E+05 -5.157422E+05 -2.137144E+06 -3.969773E+05 -1.369157E+05
        12   3 -5.729026E+06 -8.391491E+05 -3.550962E+05 -2.073925E+06 -1.747954E+05 -5.663287E+04
        12   4 -5.388435E+06 -1.424977E+06 -9.675863E+05 -1.761980E+06 -6.126661E+05 -2.254831E+05
        12   5 -5.168086E+06 -5.888255E+05 -3.967257E+05 -1.989480E+06 -3.965402E+05 -1.367810E+05