
 stresses (elem, integ.pnt.,sxx,syy,szz,sxy,sxz,syz) for set ELALL and time  0.1000000E+01

         1   1 -4.012396E+06 -4.182854E+05 -5.340155E+05 -1.099807E+05 -3.640106E+05  6.488229E+01
         1   2 -3.935695E+06  7.259916E+04 -2.315710E+05 -3.051192E+04 -2.385497E+05  1.179548E+01
         1   3 -4.011570E+06  1.969986E+04 -1.470856E+05  4.896753E+04 -1.130913E+05 -8.975460E+00
         1   4 -4.012409E+06 -4.183083E+05 -5.340188E+05  2.166556E-08 -3.640106E+05 -2.704528E-10
         1   5 -3.935696E+06  7.259740E+04 -2.315712E+05  3.310752E-08 -2.385497E+05  3.470870E-10
         1   6 -4.011573E+06  1.969533E+04 -1.470863E+05  4.668581E-08 -1.130913E+05  2.580653E-09
         1   7 -4.012396E+06 -4.182854E+05 -5.340155E+05  1.099807E+05 -3.640106E+05 -6.488229E+01
         1   8 -3.935695E+06  7.259916E+04 -2.315710E+05  3.051192E+04 -2.385497E+05 -1.179548E+01
         1   9 -4.011570E+06  1.969986E+04 -1.470856E+05 -4.896753E+04 -1.130913E+05  8.975460E+00
         1  10 -4.012539E+06 -4.183213E+05 -5.342661E+05 -1.099807E+05  1.212798E-10 -2.014858E-10
         1  11 -3.935757E+06  7.258376E+04 -2.316786E+05 -3.051192E+04  1.410313E-09  4.894889E-11
         1  12 -4.011584E+06  1.969640E+04 -1.471098E+05  4.896753E+04  2.255992E-09  1.154133E-09
         1  13 -4.012552E+06 -4.183442E+05 -5.342694E+05 -4.185127E-09 -2.082807E-09 -2.003188E-10
         1  14 -3.935758E+06  7.258200E+04 -2.316789E+05  1.161687E-08 -2.205999E-11 -1.123994E-10
         1  15 -4.011587E+06  1.969186E+04 -1.471104E+05  2.310048E-08  2.424026E-09  1.009519E-09
         1  16 -4.012539E+06 -4.183213E+05 -5.342661E+05  1.099807E+05  7.120697E-10 -2.632492E-10
         1  17 -3.935757E+06  7.258376E+04 -2.316786E+05  3.051192E+04 -1.928532E-09 -1.941700E-10
         1  18 -4.011584E+06  1.969640E+04 -1.471098E+05 -4.896753E+04  1.211450E-09  7.011388E-10
         1  19 -4.012396E+06 -4.182854E+05 -5.340155E+05 -1.099807E+05  3.640106E+05 -6.488229E+01
         1  20 -3.935695E+06  7.259916E+04 -2.315710E+05 -3.051192E+04  2.385497E+05 -1.179548E+01
         1  21 -4.011570E+06  1.969986E+04 -1.470856E+05  4.896753E+04  1.130913E+05  8.975460E+00
         1  22 -4.012409E+06 -4.183083E+05 -5.340188E+05  3.019282E-08  3.640106E+05 -2.107492E-10
         1  23 -3.935696E+06  7.259740E+04 -2.315712E+05  3.035351E-09  2.385497E+05 -6.402034E-10
         1  24 -4.011573E+06  1.969533E+04 -1.470863E+05  2.211109E-08  1.130913E+05 -4.934256E-10
         1  25 -4.012396E+06 -4.182854E+05 -5.340155E+05  1.099807E+05  3.640106E+05  6.488229E+01
         1  26 -3.935695E+06  7.259916E+04 -2.315710E+05  3.051192E+04  2.385497E+05  1.179548E+01
         1  27 -4.011570E+06  1.969986E+04 -1.470856E+05 -4.896753E+04  1.130913E+05 -8.975460E+00
         2   1 -3.982410E+06 -5.007336E+04 -1.206018E+05 -1.214127E+04 -8.985107E+04  1.768013E+00
         2   2 -3.972120E+06  8.827808E+03 -6.009688E+04 -3.004630E+03 -5.886549E+04  2.866465E-01
         2   3 -3.982267E+06  2.319142E+03 -3.620988E+04  6.131974E+03 -2.787922E+04 -2.770659E-01
         2   4 -3.982410E+06 -5.007364E+04 -1.206018E+05  2.017521E-08 -8.985107E+04  3.850841E-10
         2   5 -3.972120E+06  8.827791E+03 -6.009689E+04  3.053348E-08 -5.886549E+04 -3.984952E-09
         2   6 -3.982267E+06  2.319071E+03 -3.620989E+04  6.780022E-08 -2.787922E+04  2.300362E-09
         2   7 -3.982410E+06 -5.007336E+04 -1.206018E+05  1.214127E+04 -8.985107E+04 -1.768013E+00
         2   8 -3.972120E+06  8.827808E+03 -6.009688E+04  3.004630E+03 -5.886549E+04 -2.866465E-01
         2   9 -3.982267E+06  2.319142E+03 -3.620988E+04 -6.131974E+03 -2.787922E+04  2.770659E-01
         2  10 -3.982418E+06 -5.007554E+04 -1.206171E+05 -1.214127E+04  3.763739E-09  5.779940E-10
         2  11 -3.972124E+06  8.826870E+03 -6.010344E+04 -3.004630E+03 -1.004693E-09 -2.033954E-09
         2  12 -3.982268E+06  2.318932E+03 -3.621135E+04  6.131974E+03 -4.602813E-09  1.346601E-10
         2  13 -3.982419E+06 -5.007582E+04 -1.206171E+05 -3.158993E-08 -1.792385E-09  2.718427E-10
         2  14 -3.972124E+06  8.826853E+03 -6.010344E+04  3.056474E-08 -5.152042E-09 -1.463584E-09
         2  15 -3.982268E+06  2.318861E+03 -3.621136E+04  5.184957E-08 -4.149559E-09  7.677718E-10
         2  16 -3.982418E+06 -5.007554E+04 -1.206171E+05  1.214127E+04 -2.738901E-09  2.360646E-10
         2  17 -3.972124E+06  8.826870E+03 -6.010344E+04  3.004630E+03 -1.918592E-09 -1.287651E-09
         2  18 -3.982268E+06  2.318932E+03 -3.621135E+04 -6.131974E+03 -9.802287E-10  8.719526E-10
         2  19 -3.982410E+06 -5.007336E+04 -1.206018E+05 -1.214127E+04  8.985107E+04 -1.768013E+00
         2  20 -3.972120E+06  8.827808E+03 -6.009688E+04 -3.004630E+03  5.886549E+04 -2.866465E-01
         2  21 -3.982267E+06  2.319142E+03 -3.620988E+04  6.131974E+03  2.787922E+04  2.770659E-01
         2  22 -3.982410E+06 -5.007364E+04 -1.206018E+05 -3.174089E-08  8.985107E+04  1.218759E-10
         2  23 -3.972120E+06  8.827791E+03 -6.009689E+04  1.336447E-08  5.886549E+04  7.246600E-10
         2  24 -3.982267E+06  2.319071E+03 -3.620989E+04  6.169465E-08  2.787922E+04 -7.110788E-10
         2  25 -3.982410E+06 -5.007336E+04 -1.206018E+05  1.214127E+04  8.985107E+04  1.768013E+00
         2  26 -3.972120E+06  8.827808E+03 -6.009688E+04  3.004630E+03  5.886549E+04  2.866465E-01
         2  27 -3.982267E+06  2.319142E+03 -3.620988E+04 -6.131974E+03  2.787922E+04 -2.770659E-01
         3   1 -3.978408E+06 -5.926858E+03 -2.856067E+04 -1.183065E+03 -2.214001E+04  4.245083E-02
         3   2 -3.976907E+06  1.081090E+03 -1.539337E+04 -1.967623E+02 -1.438747E+04  4.588019E-03
         3   3 -3.978381E+06  2.591793E+02 -9.254701E+03  7.895213E+02 -6.634968E+03 -8.489910E-03
         3   4 -3.978408E+06 -5.926861E+03 -2.856067E+04  4.844510E-08 -2.214001E+04  3.225188E-09
         3   5 -3.976907E+06  1.081090E+03 -1.539337E+04  3.724710E-08 -1.438747E+04 -1.663292E-09
         3   6 -3.978381E+06  2.591781E+02 -9.254701E+03  1.851790E-08 -6.634968E+03 -5.637701E-10
         3   7 -3.978408E+06 -5.926858E+03 -2.856067E+04  1.183065E+03 -2.214001E+04 -4.245082E-02
         3   8 -3.976907E+06  1.081090E+03 -1.539337E+04  1.967623E+02 -1.438747E+04 -4.588024E-03
         3   9 -3.978381E+06  2.591793E+02 -9.254701E+03 -7.895213E+02 -6.634968E+03  8.489909E-03
         3  10 -3.978409E+06 -5.926990E+03 -2.856160E+04 -1.183065E+03  4.621359E-10  1.794914E-09
         3  11 -3.976907E+06  1.081034E+03 -1.539376E+04 -1.967623E+02  1.275075E-10 -2.077521E-10
         3  12 -3.978381E+06  2.591674E+02 -9.254784E+03  7.895213E+02 -2.670591E-09  2.634265E-10
         3  13 -3.978409E+06 -5.926993E+03 -2.856160E+04  5.692346E-08 -4.278139E-09  9.838466E-10
         3  14 -3.976907E+06  1.081034E+03 -1.539376E+04  5.442178E-08 -3.225696E-09 -9.095537E-10
         3  15 -3.978381E+06  2.591662E+02 -9.254784E+03  4.335138E-08 -1.747045E-09  1.370059E-10
         3  16 -3.978409E+06 -5.926990E+03 -2.856160E+04  1.183065E+03 -4.761362E-11  9.349056E-10
         3  17 -3.976907E+06  1.081034E+03 -1.539376E+04  1.967623E+02 -2.390280E-09 -1.435171E-09
         3  18 -3.978381E+06  2.591674E+02 -9.254784E+03 -7.895213E+02  5.421434E-10  7.655027E-10
         3  19 -3.978408E+06 -5.926858E+03 -2.856067E+04 -1.183065E+03  2.214001E+04 -4.245082E-02
         3  20 -3.976907E+06  1.081090E+03 -1.539337E+04 -1.967623E+02  1.438747E+04 -4.588018E-03
         3  21 -3.978381E+06  2.591793E+02 -9.254701E+03  7.895213E+02  6.634968E+03  8.489911E-03
         3  22 -3.978408E+06 -5.926861E+03 -2.856067E+04  5.674522E-08  2.214001E+04 -1.166618E-09
         3  23 -3.976907E+06  1.081090E+03 -1.539337E+04  3.289994E-08  1.438747E+04 -6.864980E-11
         3  24 -3.978381E+06  2.591781E+02 -9.254701E+03  3.591689E-08  6.634968E+03  8.726905E-10
         3  25 -3.978408E+06 -5.926858E+03 -2.856067E+04  1.183065E+03  2.214001E+04  4.245082E-02
         3  26 -3.976907E+06  1.081090E+03 -1.539337E+04  1.967623E+02  1.438747E+04  4.588019E-03
         3  27 -3.978381E+06  2.591793E+02 -9.254701E+03 -7.895213E+02  6.634968E+03 -8.489909E-03
         4   1 -3.977845E+06 -6.826959E+02 -7.327112E+03 -8.512021E+01 -5.150277E+03  7.104993E-04
         4   2 -3.977566E+06  1.473758E+02 -4.588741E+03  8.195186E+00 -2.866507E+03 -3.807158E-05
         4   3 -3.977840E+06 -3.381629E+01 -3.597196E+03  1.015119E+02 -5.826980E+02 -9.586438E-05
         4   4 -3.977845E+06 -6.826960E+02 -7.327112E+03  2.789515E-08 -5.150277E+03  8.104970E-10
         4   5 -3.977566E+06  1.473758E+02 -4.588741E+03  1.779968E-08 -2.866507E+03  1.113781E-09
         4   6 -3.977840E+06 -3.381631E+01 -3.597196E+03 -8.956586E-10 -5.826980E+02 -1.062500E-11
         4   7 -3.977845E+06 -6.826959E+02 -7.327112E+03  8.512021E+01 -5.150277E+03 -7.104972E-04
         4   8 -3.977566E+06  1.473758E+02 -4.588741E+03 -8.195186E+00 -2.866507E+03  3.807228E-05
         4   9 -3.977840E+06 -3.381629E+01 -3.597196E+03 -1.015119E+02 -5.826980E+02  9.586449E-05
         4  10 -3.977845E+06 -6.827031E+02 -7.327162E+03 -8.512021E+01 -1.721999E-09  5.825024E-10
         4  11 -3.977566E+06  1.473736E+02 -4.588756E+03  8.195186E+00  4.079968E-09  1.310680E-10
         4  12 -3.977840E+06 -3.381638E+01 -3.597196E+03  1.015119E+02 -1.272662E-09 -1.000526E-10
         4  13 -3.977845E+06 -6.827031E+02 -7.327162E+03  1.067232E-08 -4.547865E-09  6.316464E-10
         4  14 -3.977566E+06  1.473736E+02 -4.588756E+03  1.350708E-08  1.798143E-10 -2.792271E-11
         4  15 -3.977840E+06 -3.381640E+01 -3.597196E+03 -2.024591E-08  4.040084E-10  3.655231E-10
         4  16 -3.977845E+06 -6.827031E+02 -7.327162E+03  8.512021E+01  5.004941E-10  6.842679E-10
         4  17 -3.977566E+06  1.473736E+02 -4.588756E+03 -8.195186E+00 -2.379020E-09 -7.279418E-10
         4  18 -3.977840E+06 -3.381638E+01 -3.597196E+03 -1.015119E+02  1.053716E-09  5.408039E-10
         4  19 -3.977845E+06 -6.826959E+02 -7.327112E+03 -8.512021E+01  5.150277E+03 -7.104971E-04
         4  20 -3.977566E+06  1.473758E+02 -4.588741E+03  8.195186E+00  2.866507E+03  3.807259E-05
         4  21 -3.977840E+06 -3.381629E+01 -3.597196E+03  1.015119E+02  5.826980E+02  9.586623E-05
         4  22 -3.977845E+06 -6.826960E+02 -7.327112E+03  4.506558E-08  5.150277E+03  2.066301E-10
         4  23 -3.977566E+06  1.473758E+02 -4.588741E+03 -8.010452E-09  2.866507E+03 -1.160935E-09
         4  24 -3.977840E+06 -3.381631E+01 -3.597196E+03  7.727284E-09  5.826980E+02  6.904198E-10
         4  25 -3.977845E+06 -6.826959E+02 -7.327112E+03  8.512021E+01  5.150277E+03  7.104983E-04
         4  26 -3.977566E+06  1.473758E+02 -4.588741E+03 -8.195186E+00  2.866507E+03 -3.807520E-05
         4  27 -3.977840E+06 -3.381629E+01 -3.597196E+03 -1.015119E+02  5.826980E+02 -9.586566E-05
         5   1 -3.977825E+06 -5.146461E+01 -3.508059E+03 -8.131224E+01  5.638077E+01 -7.430375E-06
         5   2 -3.977584E+06  1.274188E+02 -4.099611E+03 -2.818041E+00  2.096080E+03 -9.573219E-06
         5   3 -3.977829E+06 -5.650368E+02 -6.243325E+03  7.567623E+01  4.135777E+03  5.072439E-04
         5   4 -3.977825E+06 -5.146463E+01 -3.508059E+03  5.035453E-09  5.638077E+01 -1.808992E-10
         5   5 -3.977584E+06  1.274188E+02 -4.099611E+03  3.894838E-09  2.096080E+03 -6.763586E-10
         5   6 -3.977829E+06 -5.650368E+02 -6.243325E+03  2.211077E-08  4.135777E+03 -7.884431E-10
         5   7 -3.977825E+06 -5.146461E+01 -3.508059E+03  8.131224E+01  5.638077E+01  7.429611E-06
         5   8 -3.977584E+06  1.274188E+02 -4.099611E+03  2.818041E+00  2.096080E+03  9.570933E-06
         5   9 -3.977829E+06 -5.650368E+02 -6.243325E+03 -7.567623E+01  4.135777E+03 -5.072443E-04
         5  10 -3.977825E+06 -5.146462E+01 -3.508059E+03 -8.131224E+01 -2.235216E-09  2.141657E-10
         5  11 -3.977584E+06  1.274176E+02 -4.099619E+03 -2.818041E+00 -3.763346E-09  6.160301E-11
         5  12 -3.977829E+06 -5.650414E+02 -6.243357E+03  7.567623E+01 -1.383284E-10 -2.214333E-10
         5  13 -3.977825E+06 -5.146463E+01 -3.508059E+03 -3.801426E-08  2.241744E-09  2.866512E-10
         5  14 -3.977584E+06  1.274176E+02 -4.099619E+03  2.970287E-08 -8.954224E-10 -1.920098E-10
         5  15 -3.977829E+06 -5.650415E+02 -6.243357E+03  3.936506E-08  1.256069E-12  2.742156E-10
         5  16 -3.977825E+06 -5.146462E+01 -3.508059E+03  8.131224E+01  2.582285E-09  7.561326E-10
         5  17 -3.977584E+06  1.274176E+02 -4.099619E+03  2.818041E+00  1.657818E-09 -7.183994E-10
         5  18 -3.977829E+06 -5.650414E+02 -6.243357E+03 -7.567623E+01  3.330501E-09  9.578512E-10
         5  19 -3.977825E+06 -5.146462E+01 -3.508059E+03 -8.131224E+01 -5.638077E+01  7.431671E-06
         5  20 -3.977584E+06  1.274188E+02 -4.099611E+03 -2.818041E+00 -2.096080E+03  9.574439E-06
         5  21 -3.977829E+06 -5.650368E+02 -6.243325E+03  7.567623E+01 -4.135777E+03 -5.072423E-04
         5  22 -3.977825E+06 -5.146463E+01 -3.508059E+03  2.213037E-08 -5.638077E+01  9.166327E-10
         5  23 -3.977584E+06  1.274188E+02 -4.099611E+03  2.970497E-08 -2.096080E+03  9.970277E-11
         5  24 -3.977829E+06 -5.650368E+02 -6.243325E+03  4.800477E-08 -4.135777E+03  1.252986E-09
         5  25 -3.977825E+06 -5.146461E+01 -3.508059E+03  8.131224E+01 -5.638077E+01 -7.430127E-06
         5  26 -3.977584E+06  1.274188E+02 -4.099611E+03  2.818041E+00 -2.096080E+03 -9.574769E-06
         5  27 -3.977829E+06 -5.650368E+02 -6.243325E+03 -7.567623E+01 -4.135777E+03  5.072444E-04
         6   1 -3.978269E+06  2.125842E+02 -7.799870E+03 -6.526424E+02  5.393264E+03 -5.704628E-03
         6   2 -3.977043E+06  8.967028E+02 -1.283145E+04  1.643614E+02  1.185491E+04  3.157893E-03
         6   3 -3.978291E+06 -4.912068E+03 -2.371314E+04  9.813562E+02  1.831640E+04  2.913175E-02
         6   4 -3.978269E+06  2.125834E+02 -7.799870E+03  5.317154E-08  5.393264E+03 -1.453554E-10
         6   5 -3.977043E+06  8.967028E+02 -1.283145E+04  3.510654E-08  1.185491E+04  1.259205E-09
         6   6 -3.978291E+06 -4.912070E+03 -2.371314E+04  7.370394E-09  1.831640E+04  4.183701E-10
         6   7 -3.978269E+06  2.125842E+02 -7.799870E+03  6.526424E+02  5.393264E+03  5.704627E-03
         6   8 -3.977043E+06  8.967028E+02 -1.283145E+04 -1.643614E+02  1.185491E+04 -3.157892E-03
         6   9 -3.978291E+06 -4.912068E+03 -2.371314E+04 -9.813562E+02  1.831640E+04 -2.913175E-02
         6  10 -3.978269E+06  2.125763E+02 -7.799925E+03 -6.526424E+02 -2.670127E-09  2.084674E-10
         6  11 -3.977044E+06  8.966648E+02 -1.283172E+04  1.643614E+02  5.578649E-09 -9.107423E-11
         6  12 -3.978291E+06 -4.912159E+03 -2.371378E+04  9.813562E+02  3.821736E-10  6.260245E-11
         6  13 -3.978269E+06  2.125755E+02 -7.799925E+03  5.312331E-08 -2.923520E-10  5.492454E-10
         6  14 -3.977044E+06  8.966647E+02 -1.283172E+04  1.356585E-08 -3.594427E-10  9.100502E-11
         6  15 -3.978291E+06 -4.912161E+03 -2.371378E+04 -6.645619E-09 -3.629876E-09 -8.391585E-10
         6  16 -3.978269E+06  2.125763E+02 -7.799925E+03  6.526424E+02 -1.641447E-10  1.158085E-09
         6  17 -3.977044E+06  8.966648E+02 -1.283172E+04 -1.643614E+02 -2.174772E-09  2.169373E-12
         6  18 -3.978291E+06 -4.912159E+03 -2.371378E+04 -9.813562E+02 -1.058916E-09 -8.987443E-10
         6  19 -3.978269E+06  2.125842E+02 -7.799870E+03 -6.526424E+02 -5.393264E+03  5.704630E-03
         6  20 -3.977043E+06  8.967028E+02 -1.283145E+04  1.643614E+02 -1.185491E+04 -3.157893E-03
         6  21 -3.978291E+06 -4.912068E+03 -2.371314E+04  9.813562E+02 -1.831640E+04 -2.913175E-02
         6  22 -3.978269E+06  2.125834E+02 -7.799870E+03  6.168756E-08 -5.393264E+03  1.289422E-09
         6  23 -3.977043E+06  8.967028E+02 -1.283145E+04 -1.227164E-08 -1.185491E+04 -1.731411E-09
         6  24 -3.978291E+06 -4.912070E+03 -2.371314E+04 -9.900691E-09 -1.831640E+04 -2.425931E-09
         6  25 -3.978269E+06  2.125842E+02 -7.799870E+03  6.526424E+02 -5.393264E+03 -5.704628E-03
         6  26 -3.977043E+06  8.967028E+02 -1.283145E+04 -1.643614E+02 -1.185491E+04  3.157890E-03
         6  27 -3.978291E+06 -4.912068E+03 -2.371314E+04 -9.813562E+02 -1.831640E+04  2.913175E-02
         7   1 -3.981488E+06  1.921995E+03 -3.004270E+04 -5.081552E+03  2.308008E+04 -1.900796E-01
         7   2 -3.973078E+06  7.316363E+03 -4.982703E+04  2.490598E+03  4.876969E+04  1.968564E-01
         7   3 -3.981607E+06 -4.150064E+04 -9.996612E+04  1.006288E+04  7.445921E+04  1.214338E+00
         7   4 -3.981488E+06  1.921946E+03 -3.004270E+04 -1.307526E-08  2.308008E+04  1.529921E-10
         7   5 -3.973078E+06  7.316351E+03 -4.982704E+04 -2.298432E-08  4.876969E+04  6.858304E-10
         7   6 -3.981607E+06 -4.150083E+04 -9.996615E+04  2.196034E-08  7.445921E+04  5.652746E-10
         7   7 -3.981488E+06  1.921995E+03 -3.004270E+04  5.081552E+03  2.308008E+04  1.900796E-01
         7   8 -3.973078E+06  7.316363E+03 -4.982703E+04 -2.490598E+03  4.876969E+04 -1.968564E-01
         7   9 -3.981607E+06 -4.150064E+04 -9.996612E+04 -1.006288E+04  7.445921E+04 -1.214338E+00
         7  10 -3.981489E+06  1.921851E+03 -3.004370E+04 -5.081552E+03 -3.367764E-09  5.092224E-11
         7  11 -3.973080E+06  7.315719E+03 -4.983153E+04  2.490598E+03 -1.408617E-09  1.587737E-10
         7  12 -3.981613E+06 -4.150214E+04 -9.997660E+04  1.006288E+04 -2.573989E-09  5.000430E-10
         7  13 -3.981489E+06  1.921802E+03 -3.004371E+04 -1.302074E-08 -1.926102E-09 -5.662692E-10
         7  14 -3.973080E+06  7.315708E+03 -4.983153E+04 -5.767364E-09 -2.329661E-09  7.991780E-10
         7  15 -3.981613E+06 -4.150233E+04 -9.997663E+04 -6.388345E-10  2.236871E-11  5.648908E-10
         7  16 -3.981489E+06  1.921851E+03 -3.004370E+04  5.081552E+03 -1.537811E-09 -1.117737E-09
         7  17 -3.973080E+06  7.315719E+03 -4.983153E+04 -2.490598E+03 -2.444044E-09  1.353244E-09
         7  18 -3.981613E+06 -4.150214E+04 -9.997660E+04 -1.006288E+04 -1.921393E-10  7.946954E-10
         7  19 -3.981488E+06  1.921995E+03 -3.004270E+04 -5.081552E+03 -2.308008E+04  1.900796E-01
         7  20 -3.973078E+06  7.316363E+03 -4.982703E+04  2.490598E+03 -4.876969E+04 -1.968564E-01
         7  21 -3.981607E+06 -4.150064E+04 -9.996612E+04  1.006288E+04 -7.445921E+04 -1.214338E+00
         7  22 -3.981488E+06  1.921946E+03 -3.004270E+04 -1.294733E-08 -2.308008E+04 -1.331012E-09
         7  23 -3.973078E+06  7.316351E+03 -4.982704E+04 -1.864343E-08 -4.876969E+04  6.201211E-10
         7  24 -3.981607E+06 -4.150083E+04 -9.996615E+04  2.190995E-08 -7.445921E+04  5.396273E-10
         7  25 -3.981488E+06  1.921995E+03 -3.004270E+04  5.081552E+03 -2.308008E+04 -1.900796E-01
         7  26 -3.973078E+06  7.316363E+03 -4.982703E+04 -2.490598E+03 -4.876969E+04  1.968564E-01
         7  27 -3.981607E+06 -4.150064E+04 -9.996612E+04 -1.006288E+04 -7.445921E+04  1.214338E+00
         8   1 -4.005775E+06  1.632565E+04 -1.219153E+05 -4.058303E+04  9.372404E+04 -6.164694E+00
         8   2 -3.942893E+06  6.016828E+04 -1.919468E+05  2.528698E+04  1.977021E+05  8.101789E+00
         8   3 -4.006467E+06 -3.466756E+05 -4.426294E+05  9.115050E+04  3.016831E+05  4.456628E+01
         8   4 -4.005777E+06  1.632253E+04 -1.219158E+05  8.110305E-09  9.372404E+04 -2.241216E-10
         8   5 -3.942893E+06  6.016707E+04 -1.919470E+05 -5.674821E-09  1.977021E+05 -1.503306E-09
         8   6 -4.006476E+06 -3.466913E+05 -4.426317E+05  2.036042E-09  3.016831E+05 -8.766815E-10
         8   7 -4.005775E+06  1.632565E+04 -1.219153E+05  4.058303E+04  9.372404E+04  6.164694E+00
         8   8 -3.942893E+06  6.016828E+04 -1.919468E+05 -2.528698E+04  1.977021E+05 -8.101789E+00
         8   9 -4.006467E+06 -3.466756E+05 -4.426294E+05 -9.115050E+04  3.016831E+05 -4.456628E+01
         8  10 -4.005785E+06  1.632327E+04 -1.219320E+05 -4.058303E+04  1.315775E-09 -2.718486E-10
         8  11 -3.942935E+06  6.015770E+04 -1.920207E+05  2.528698E+04 -1.298307E-09 -5.790064E-10
         8  12 -4.006565E+06 -3.467002E+05 -4.428015E+05  9.115050E+04  1.647195E-09 -1.460362E-10
         8  13 -4.005787E+06  1.632016E+04 -1.219324E+05  1.666659E-08 -2.049606E-09 -2.523873E-11
         8  14 -3.942936E+06  6.015650E+04 -1.920209E+05 -1.368804E-09 -8.980095E-10 -5.802151E-10
         8  15 -4.006574E+06 -3.467159E+05 -4.428038E+05 -2.205533E-09 -5.817615E-10 -2.548892E-10
         8  16 -4.005785E+06  1.632327E+04 -1.219320E+05  4.058303E+04  3.184906E-09 -2.628460E-10
         8  17 -3.942935E+06  6.015770E+04 -1.920207E+05 -2.528698E+04 -8.454677E-10 -7.664725E-10
         8  18 -4.006565E+06 -3.467002E+05 -4.428015E+05 -9.115050E+04  1.474490E-09 -1.150224E-10
         8  19 -4.005775E+06  1.632565E+04 -1.219153E+05 -4.058303E+04 -9.372404E+04  6.164694E+00
         8  20 -3.942893E+06  6.016828E+04 -1.919468E+05  2.528698E+04 -1.977021E+05 -8.101789E+00
         8  21 -4.006467E+06 -3.466756E+05 -4.426294E+05  9.115050E+04 -3.016831E+05 -4.456628E+01
         8  22 -4.005777E+06  1.632253E+04 -1.219158E+05  1.661416E-08 -9.372404E+04  1.116089E-10
         8  23 -3.942893E+06  6.016707E+04 -1.919470E+05 -5.674636E-09 -1.977021E+05  3.436835E-10
         8  24 -4.006476E+06 -3.466913E+05 -4.426317E+05 -1.290236E-08 -3.016831E+05  3.996569E-10
         8  25 -4.005775E+06  1.632565E+04 -1.219153E+05  4.058303E+04 -9.372404E+04 -6.164694E+00
         8  26 -3.942893E+06  6.016828E+04 -1.919468E+05 -2.528698E+04 -1.977021E+05  8.101789E+00
         8  27 -4.006467E+06 -3.466756E+05 -4.426294E+05 -9.115050E+04 -3.016831E+05  4.456628E+01
         9   1  2.214201E+06  7.785465E+06  2.122033E+06 -1.406337E+06  1.011322E+05  7.952767E+05
         9   2  1.740653E+06  6.644299E+06  1.438064E+06 -1.246902E+06  3.369198E+05  3.726515E+05
         9   3  1.428403E+06  5.602112E+06  1.068227E+06 -1.283217E+06  3.883112E+05 -4.899988E+04
         9   4  1.855111E+05 -4.708259E+05  2.001070E+05 -1.267567E+06  1.029672E+05  1.372025E+05
         9   5  5.210938E+04 -4.855458E+05  1.007260E+05 -1.170022E+06  3.382595E+05  8.675249E+04
         9   6  1.679772E+04 -4.658490E+05  5.931255E+04 -1.268168E+06  3.882643E+05  3.642504E+04
         9   7 -1.847690E+06 -8.663755E+06 -1.724810E+06 -1.130542E+06  1.045301E+05 -5.122705E+05
         9   8 -1.639312E+06 -7.566390E+06 -1.238518E+06 -1.093959E+06  3.395401E+05 -1.959748E+05
         9   9 -1.396713E+06 -6.497631E+06 -9.506971E+05 -1.253197E+06  3.882210E+05  1.210473E+05
         9  10  2.214023E+06  7.784790E+06  2.120838E+06 -1.406401E+06  2.839867E-09  6.965444E-08
         9  11  1.740494E+06  6.644120E+06  1.437592E+06 -1.247003E+06  6.250617E-09 -1.296446E-09
         9  12  1.428241E+06  5.602069E+06  1.067939E+06 -1.283202E+06  2.075720E-09 -7.253191E-08
         9  13  1.854946E+05 -4.708490E+05  2.000516E+05 -1.267578E+06  2.997544E-09  1.255880E-12
         9  14  5.198445E+04 -4.855847E+05  1.004966E+05 -1.170046E+06  7.930569E-10  4.087698E-11
         9  15  1.663549E+04 -4.658909E+05  5.902670E+04 -1.268179E+06  5.345104E-09  9.497308E-11
         9  16 -1.847773E+06 -8.664043E+06 -1.725330E+06 -1.130499E+06 -1.047305E-10 -6.880793E-08
         9  17 -1.639446E+06 -7.566463E+06 -1.238807E+06 -1.093905E+06  2.928098E-09  1.286255E-09
         9  18 -1.396878E+06 -6.497688E+06 -9.510085E+05 -1.253236E+06 -1.661232E-09  7.199789E-08
         9  19  2.214201E+06  7.785465E+06  2.122033E+06 -1.406337E+06 -1.011322E+05 -7.952767E+05
         9  20  1.740653E+06  6.644299E+06  1.438064E+06 -1.246902E+06 -3.369198E+05 -3.726515E+05
         9  21  1.428403E+06  5.602112E+06  1.068227E+06 -1.283217E+06 -3.883112E+05  4.899988E+04
         9  22  1.855111E+05 -4.708259E+05  2.001070E+05 -1.267567E+06 -1.029672E+05 -1.372025E+05
         9  23  5.210938E+04 -4.855458E+05  1.007260E+05 -1.170022E+06 -3.382595E+05 -8.675249E+04
         9  24  1.679772E+04 -4.658490E+05  5.931255E+04 -1.268168E+06 -3.882643E+05 -3.642504E+04
         9  25 -1.847690E+06 -8.663755E+06 -1.724810E+06 -1.130542E+06 -1.045301E+05  5.122705E+05
         9  26 -1.639312E+06 -7.566390E+06 -1.238518E+06 -1.093959E+06 -3.395401E+05  1.959748E+05
         9  27 -1.396713E+06 -6.497631E+06 -9.506971E+05 -1.253197E+06 -3.882210E+05 -1.210473E+05
        10   1  1.262490E+06  4.894999E+06  9.224950E+05 -1.295257E+06  3.573172E+05 -5.187236E+04
        10   2  9.976006E+05  3.797880E+06  7.022106E+05 -1.183435E+06  3.074610E+05 -1.102171E+05
        10   3  7.522890E+05  2.714095E+06  5.245287E+05 -1.280248E+06  2.372463E+05 -1.687037E+05
        10   4  1.711525E+04 -4.708791E+05  4.770072E+04 -1.271041E+06  3.571921E+05  2.812650E+04
        10   5  1.183626E+04 -4.718990E+05  3.484832E+04 -1.166691E+06  3.069720E+05  1.065423E+04
        10   6  1.917393E+04 -4.677711E+05  3.639900E+04 -1.271058E+06  2.363213E+05 -7.056782E+03
        10   7 -1.229722E+06 -5.808352E+06 -8.278872E+05 -1.246980E+06  3.570724E+05  1.074613E+05
        10   8 -9.748148E+05 -4.723528E+06 -6.328965E+05 -1.150026E+06  3.064872E+05  1.307289E+05
        10   9 -7.144160E+05 -3.639479E+06 -4.518558E+05 -1.261892E+06  2.353978E+05  1.537964E+05
        10  10  1.262352E+06  4.894962E+06  9.222502E+05 -1.295242E+06 -3.013717E-09  6.774588E-08
        10  11  9.974960E+05  3.797842E+06  7.020105E+05 -1.183408E+06 -9.214783E-10 -2.241242E-08
        10  12  7.522211E+05  2.714050E+06  5.243701E+05 -1.280216E+06  4.046584E-09 -1.100589E-07
        10  13  1.697804E+04 -4.709143E+05  4.745944E+04 -1.271049E+06  2.979194E-09 -1.083874E-10
        10  14  1.173506E+04 -4.719244E+05  3.467104E+04 -1.166694E+06  2.988543E-09 -3.514984E-11
        10  15  1.911397E+04 -4.677862E+05  3.629400E+04 -1.271057E+06  5.403854E-09 -1.744110E-10
        10  16 -1.229862E+06 -5.808399E+06 -8.281489E+05 -1.247011E+06  9.129528E-10 -6.734041E-08
        10  17 -9.749204E+05 -4.723572E+06 -6.331056E+05 -1.150058E+06  1.467229E-09  2.221590E-08
        10  18 -7.144819E+05 -3.639520E+06 -4.520050E+05 -1.261922E+06  2.838071E-09  1.093887E-07
        10  19  1.262490E+06  4.894999E+06  9.224950E+05 -1.295257E+06 -3.573172E+05  5.187236E+04
        10  20  9.976006E+05  3.797880E+06  7.022106E+05 -1.183435E+06 -3.074610E+05  1.102171E+05
        10  21  7.522890E+05  2.714095E+06  5.245287E+05 -1.280248E+06 -2.372463E+05  1.687037E+05
        10  22  1.711525E+04 -4.708791E+05  4.770072E+04 -1.271041E+06 -3.571921E+05 -2.812650E+04
        10  23  1.183626E+04 -4.718990E+05  3.484832E+04 -1.166691E+06 -3.069720E+05 -1.065423E+04
        10  24  1.917393E+04 -4.677711E+05  3.639900E+04 -1.271058E+06 -2.363213E+05  7.056782E+03
        10  25 -1.229722E+06 -5.808352E+06 -8.278872E+05 -1.246980E+06 -3.570724E+05 -1.074613E+05
        10  26 -9.748148E+05 -4.723528E+06 -6.328965E+05 -1.150026E+06 -3.064872E+05 -1.307289E+05
        10  27 -7.144160E+05 -3.639479E+06 -4.518558E+05 -1.261892E+06 -2.353978E+05 -1.537964E+05
        11   1  5.947508E+05  2.026484E+06  4.189797E+05 -1.283713E+06  1.895111E+05 -1.743294E+05
        11   2  3.667884E+05  9.290184E+05  2.745567E+05 -1.136681E+06  1.084399E+05 -2.096368E+05
        11   3  1.965020E+05 -1.503045E+05  1.669041E+05 -1.199684E+06  2.604530E+04 -2.449677E+05
        11   4  2.137372E+04 -4.645229E+05  4.103936E+04 -1.271390E+06  1.885039E+05 -1.331675E+04
        11   5  4.488458E+04 -4.722147E+05  6.316743E+04 -1.166105E+06  1.073563E+05 -4.607396E+04
        11   6  1.257000E+05 -4.634672E+05  1.202296E+05 -1.270809E+06  2.488827E+04 -7.890779E+04
        11   7 -5.522861E+05 -2.949268E+06 -3.369334E+05 -1.259103E+06  1.875003E+05  1.470769E+05
        11   8 -2.770943E+05 -1.871420E+06 -1.481605E+05 -1.195454E+06  1.062555E+05  1.171348E+05
        11   9  5.492767E+04 -7.764607E+05  7.365969E+04 -1.341896E+06  2.369278E+04  8.707173E+04
        11  10  5.947042E+05  2.026442E+06  4.188556E+05 -1.283687E+06  2.650491E-09  4.561472E-08
        11  11  3.667641E+05  9.289682E+05  2.744523E+05 -1.136663E+06 -1.616859E-09  1.707009E-08
        11  12  1.964852E+05 -1.503691E+05  1.667901E+05 -1.199678E+06  4.263473E-10 -1.379745E-08
        11  13  2.133553E+04 -4.645326E+05  4.097229E+04 -1.271388E+06  2.826246E-09 -5.984834E-11
        11  14  4.487165E+04 -4.722201E+05  6.314183E+04 -1.166101E+06  9.412507E-10  1.605533E-10
        11  15  1.256977E+05 -4.634740E+05  1.202167E+05 -1.270807E+06 -9.770638E-10  5.097721E-11
        11  16 -5.523297E+05 -2.949301E+06 -3.370405E+05 -1.259126E+06  5.653484E-09 -4.590455E-08
        11  17 -2.771101E+05 -1.871438E+06 -1.482077E+05 -1.195465E+06  1.951411E-09 -1.716131E-08
        11  18  5.492502E+04 -7.764690E+05  7.364435E+04 -1.341898E+06  3.882838E-10  1.424435E-08
        11  19  5.947508E+05  2.026484E+06  4.189797E+05 -1.283713E+06 -1.895111E+05  1.743294E+05
        11  20  3.667884E+05  9.290184E+05  2.745567E+05 -1.136681E+06 -1.084399E+05  2.096368E+05
        11  21  1.965020E+05 -1.503045E+05  1.669041E+05 -1.199684E+06 -2.604530E+04  2.449677E+05
        11  22  2.137372E+04 -4.645229E+05  4.103936E+04 -1.271390E+06 -1.885039E+05  1.331675E+04
        11  23  4.488458E+04 -4.722147E+05  6.316743E+04 -1.166105E+06 -1.073563E+05  4.607396E+04
        11  24  1.257000E+05 -4.634672E+05  1.202296E+05 -1.270809E+06 -2.488827E+04  7.890779E+04
        11  25 -5.522861E+05 -2.949268E+06 -3.369334E+05 -1.259103E+06 -1.875003E+05 -1.470769E+05
        11  26 -2.770943E+05 -1.871420E+06 -1.481605E+05 -1.195454E+06 -1.062555E+05 -1.171348E+05
        11  27  5.492767E+04 -7.764607E+05  7.365969E+04 -1.341896E+06 -2.369278E+04 -8.707173E+04
        12   1 -4.791052E+06 -1.394823E+06 -8.504642E+05 -1.709008E+06 -4.834354E+05 -1.776033E+05
        12   2 -4.648339E+06 -6.615345E+05 -3.923490E+05 -1.793744E+06 -3.110129E+05 -1.066224E+05
        12   3 -4.766954E+06 -6.749876E+05 -2.608647E+05 -1.728727E+06 -1.357102E+05 -4.329377E+04
        12   4 -4.547448E+06 -1.169375E+06 -7.570129E+05 -1.505805E+06 -4.799694E+05 -1.764356E+05
        12   5 -4.378053E+06 -5.231298E+05 -3.125723E+05 -1.682764E+06 -3.104159E+05 -1.064221E+05