
 stresses (elem, integ.pnt.,sxx,syy,szz,sxy,sxz,syz) for set ELALL and time  0.1000000E+01

         1   1  1.860879E+06  1.108959E+05  1.232956E+05  6.941262E+04  8.470415E+04  9.443418E+00
         1   2  1.850716E+06  2.439343E+04  6.092617E+04  3.157750E+04  5.325286E+04  2.700905E+00
         1   3  1.860971E+06  3.269280E+03  3.533556E+04 -6.256996E+03  2.180111E+04 -2.190912E-01
         1   4  1.860874E+06  1.108868E+05  1.232943E+05  2.487617E-10  8.470415E+04 -1.078236E-10
         1   5  1.850714E+06  2.439156E+04  6.092590E+04  4.046386E-10  5.325286E+04 -4.747051E-10
         1   6  1.860971E+06  3.269206E+03  3.533555E+04  2.742684E-10  2.180111E+04 -9.123195E-10
         1   7  1.860879E+06  1.108959E+05  1.232956E+05 -6.941262E+04  8.470415E+04 -9.443418E+00
         1   8  1.850716E+06  2.439343E+04  6.092617E+04 -3.157750E+04  5.325286E+04 -2.700905E+00
         1   9  1.860971E+06  3.269280E+03  3.533556E+04  6.256996E+03  2.180111E+04  2.190912E-01
         1  10  1.860871E+06  1.108940E+05  1.232822E+05  6.941262E+04  4.023885E-10 -4.989502E-11
         1  11  1.850712E+06  2.439267E+04  6.092085E+04  3.157750E+04  5.496198E-10 -3.051656E-10
         1  12  1.860970E+06  3.269153E+03  3.533467E+04 -6.256996E+03  1.858762E-09 -7.430016E-10
         1  13  1.860866E+06  1.108849E+05  1.232809E+05 -7.407663E-10  1.685301E-11 -7.426132E-11
         1  14  1.850711E+06  2.439080E+04  6.092059E+04 -6.817360E-10  8.187142E-10 -4.396179E-10
         1  15  1.860970E+06  3.269079E+03  3.533466E+04 -1.355334E-09  1.228178E-09 -9.699571E-10
         1  16  1.860871E+06  1.108940E+05  1.232822E+05 -6.941262E+04 -5.637080E-10 -5.609147E-11
         1  17  1.850712E+06  2.439267E+04  6.092085E+04 -3.157750E+04 -2.892169E-10 -5.009801E-10
         1  18  1.860970E+06  3.269153E+03  3.533467E+04  6.256996E+03 -1.088060E-09 -1.126433E-09
         1  19  1.860879E+06  1.108959E+05  1.232956E+05  6.941262E+04 -8.470415E+04 -9.443418E+00
         1  20  1.850716E+06  2.439343E+04  6.092617E+04  3.157750E+04 -5.325286E+04 -2.700905E+00
         1  21  1.860971E+06  3.269280E+03  3.533556E+04 -6.256996E+03 -2.180111E+04  2.190912E-01
         1  22  1.860874E+06  1.108868E+05  1.232943E+05 -3.493146E-10 -8.470415E+04 -3.687114E-11
         1  23  1.850714E+06  2.439156E+04  6.092590E+04  1.243047E-10 -5.325286E+04 -4.011921E-10
         1  24  1.860971E+06  3.269206E+03  3.533555E+04 -2.437574E-09 -2.180111E+04 -1.047809E-09
         1  25  1.860879E+06  1.108959E+05  1.232956E+05 -6.941262E+04 -8.470415E+04  9.443418E+00
         1  26  1.850716E+06  2.439343E+04  6.092617E+04 -3.157750E+04 -5.325286E+04  2.700905E+00
         1  27  1.860971E+06  3.269280E+03  3.533556E+04  6.256996E+03 -2.180111E+04 -2.190912E-01
         2   1  1.856920E+06  4.908396E+03  2.838573E+04  2.319427E+03  1.698620E+04  6.327906E-02
         2   2  1.855813E+06  5.845229E+02  1.977710E+04  1.019952E+03  7.134936E+03  1.168835E-02
         2   3  1.856927E+06  2.521107E+01  1.850932E+04 -2.795247E+02 -2.716290E+03  1.219493E-03
         2   4  1.856920E+06  4.908386E+03  2.838573E+04  2.469624E-08  1.698620E+04 -6.491445E-10
         2   5  1.855813E+06  5.845209E+02  1.977710E+04 -3.526484E-08  7.134936E+03  7.085057E-10
         2   6  1.856927E+06  2.521092E+01  1.850932E+04 -1.041640E-07 -2.716290E+03  2.337079E-09
         2   7  1.856920E+06  4.908396E+03  2.838573E+04 -2.319427E+03  1.698620E+04 -6.327906E-02
         2   8  1.855813E+06  5.845229E+02  1.977710E+04 -1.019952E+03  7.134936E+03 -1.168835E-02
         2   9  1.856927E+06  2.521107E+01  1.850932E+04  2.795247E+02 -2.716290E+03 -1.219489E-03
         2  10  1.856919E+06  4.908319E+03  2.838519E+04  2.319427E+03 -1.009634E-08 -6.321854E-10
         2  11  1.855813E+06  5.845093E+02  1.977701E+04  1.019952E+03  1.848305E-08  5.125520E-10
         2  12  1.856927E+06  2.520909E+01  1.850931E+04 -2.795247E+02  4.446844E-08  1.893434E-09
         2  13  1.856919E+06  4.908309E+03  2.838519E+04 -2.070475E-09  6.654235E-10 -7.593515E-10
         2  14  1.855813E+06  5.845073E+02  1.977701E+04 -1.596987E-10  1.817795E-10  6.498145E-10
         2  15  1.856927E+06  2.520895E+01  1.850931E+04 -5.918589E-11  1.065580E-10  2.125239E-09
         2  16  1.856919E+06  4.908319E+03  2.838519E+04 -2.319427E+03  1.045006E-08 -9.214810E-10
         2  17  1.855813E+06  5.845093E+02  1.977701E+04 -1.019952E+03 -1.841364E-08  7.155747E-10
         2  18  1.856927E+06  2.520909E+01  1.850931E+04  2.795247E+02 -4.451927E-08  2.339794E-09
         2  19  1.856920E+06  4.908396E+03  2.838573E+04  2.319427E+03 -1.698620E+04 -6.327906E-02
         2  20  1.855813E+06  5.845229E+02  1.977710E+04  1.019952E+03 -7.134936E+03 -1.168835E-02
         2  21  1.856927E+06  2.521107E+01  1.850932E+04 -2.795247E+02  2.716290E+03 -1.219490E-03
         2  22  1.856920E+06  4.908386E+03  2.838573E+04 -2.627336E-08 -1.698620E+04 -8.633589E-10
         2  23  1.855813E+06  5.845209E+02  1.977710E+04  3.550539E-08 -7.134936E+03  5.739775E-10
         2  24  1.856927E+06  2.521092E+01  1.850932E+04  1.013007E-07  2.716290E+03  1.926111E-09
         2  25  1.856920E+06  4.908396E+03  2.838573E+04 -2.319427E+03 -1.698620E+04  6.327906E-02
         2  26  1.855813E+06  5.845229E+02  1.977710E+04 -1.019952E+03 -7.134936E+03  1.168835E-02
         2  27  1.856927E+06  2.521107E+01  1.850932E+04  2.795247E+02  2.716290E+03  1.219494E-03
         3   1  1.857192E+06 -7.373189E+01  2.003007E+04  1.206125E+03 -6.088058E+03 -1.179379E-02
         3   2  1.855476E+06  1.260755E+03  2.812806E+04 -1.285112E+03 -2.011970E+04  4.152851E-02
         3   3  1.857175E+06  8.971433E+03  4.693598E+04 -3.776295E+03 -3.415133E+04  2.071367E-01
         3   4  1.857192E+06 -7.373461E+01  2.003007E+04  1.030730E-07 -6.088058E+03  2.315018E-09
         3   5  1.855476E+06  1.260752E+03  2.812806E+04  3.495314E-08 -2.011970E+04  6.575794E-10
         3   6  1.857175E+06  8.971406E+03  4.693598E+04 -2.661960E-08 -3.415133E+04 -6.617103E-10
         3   7  1.857192E+06 -7.373189E+01  2.003007E+04 -1.206125E+03 -6.088058E+03  1.179379E-02
         3   8  1.855476E+06  1.260755E+03  2.812806E+04  1.285112E+03 -2.011970E+04 -4.152851E-02
         3   9  1.857175E+06  8.971433E+03  4.693598E+04  3.776295E+03 -3.415133E+04 -2.071367E-01
         3  10  1.857192E+06 -7.374180E+01  2.003000E+04  1.206125E+03 -4.483940E-08  1.937033E-09
         3  11  1.855476E+06  1.260647E+03  2.812730E+04 -1.285112E+03 -1.888302E-08  4.948943E-10
         3  12  1.857174E+06  8.971121E+03  4.693380E+04 -3.776295E+03  9.520229E-09 -7.288579E-10
         3  13  1.857192E+06 -7.374453E+01  2.003000E+04 -4.971558E-10 -6.312181E-10  2.110829E-09
         3  14  1.855476E+06  1.260644E+03  2.812730E+04  7.238609E-10 -2.525974E-10  6.703670E-10
         3  15  1.857174E+06  8.971094E+03  4.693379E+04 -1.349211E-10  4.041563E-10 -5.608856E-10
         3  16  1.857192E+06 -7.374180E+01  2.003000E+04 -1.206125E+03  4.467151E-08  2.308691E-09
         3  17  1.855476E+06  1.260647E+03  2.812730E+04  1.285112E+03  1.908680E-08  8.286646E-10
         3  18  1.857174E+06  8.971121E+03  4.693380E+04  3.776295E+03 -9.492162E-09 -3.173583E-10
         3  19  1.857192E+06 -7.373189E+01  2.003007E+04  1.206125E+03  6.088058E+03  1.179379E-02
         3  20  1.855476E+06  1.260755E+03  2.812806E+04 -1.285112E+03  2.011970E+04 -4.152851E-02
         3  21  1.857175E+06  8.971433E+03  4.693598E+04 -3.776295E+03  3.415133E+04 -2.071367E-01
         3  22  1.857192E+06 -7.373461E+01  2.003007E+04 -1.040799E-07  6.088058E+03  1.926130E-09
         3  23  1.855476E+06  1.260752E+03  2.812806E+04 -3.488212E-08  2.011970E+04  6.920849E-10
         3  24  1.857175E+06  8.971406E+03  4.693598E+04  2.559197E-08  3.415133E+04 -4.504252E-10
         3  25  1.857192E+06 -7.373189E+01  2.003007E+04 -1.206125E+03  6.088058E+03 -1.179379E-02
         3  26  1.855476E+06  1.260755E+03  2.812806E+04  1.285112E+03  2.011970E+04  4.152851E-02
         3  27  1.857175E+06  8.971433E+03  4.693598E+04  3.776295E+03  3.415133E+04  2.071367E-01
         4   1  1.864574E+06  5.986651E+03  6.056207E+04  1.155146E+04 -4.216823E+04 -7.823499E-01
         4   2  1.846167E+06  4.396490E+04  1.082352E+05 -5.659664E+04 -9.806517E+04  8.914542E+00
         4   3  1.864414E+06  1.995867E+05  2.216400E+05 -1.247495E+05 -1.539630E+05  3.084924E+01
         4   4  1.864574E+06  5.986401E+03  6.056203E+04 -2.084470E-09 -4.216823E+04 -9.542417E-10
         4   5  1.846163E+06  4.395889E+04  1.082344E+05 -1.036070E-09 -9.806517E+04 -6.651574E-10
         4   6  1.864397E+06  1.995576E+05  2.216358E+05 -1.726608E-09 -1.539630E+05 -1.350876E-10
         4   7  1.864574E+06  5.986651E+03  6.056207E+04 -1.155146E+04 -4.216823E+04  7.823499E-01
         4   8  1.846167E+06  4.396490E+04  1.082352E+05  5.659664E+04 -9.806517E+04 -8.914542E+00
         4   9  1.864414E+06  1.995867E+05  2.216400E+05  1.247495E+05 -1.539630E+05 -3.084924E+01
         4  10  1.864572E+06  5.986175E+03  6.055874E+04  1.155146E+04 -9.161471E-10 -1.039941E-09
         4  11  1.846156E+06  4.396232E+04  1.082172E+05 -5.659664E+04 -3.542798E-10 -5.592575E-10
         4  12  1.864388E+06  1.995804E+05  2.215956E+05 -1.247495E+05 -6.871929E-10 -1.744074E-10
         4  13  1.864572E+06  5.985925E+03  6.055870E+04 -5.938703E-11  2.671874E-10 -8.215983E-10
         4  14  1.846153E+06  4.395632E+04  1.082164E+05 -9.601899E-10  3.053421E-10 -5.598217E-10
         4  15  1.864372E+06  1.995512E+05  2.215914E+05  5.219413E-10 -5.806585E-10 -1.468115E-10
         4  16  1.864572E+06  5.986175E+03  6.055874E+04 -1.155146E+04  1.141296E-09 -7.006872E-10
         4  17  1.846156E+06  4.396232E+04  1.082172E+05  5.659664E+04  6.266411E-10 -5.458144E-10
         4  18  1.864388E+06  1.995804E+05  2.215956E+05  1.247495E+05  5.550641E-10 -1.461834E-10
         4  19  1.864574E+06  5.986651E+03  6.056207E+04  1.155146E+04  4.216823E+04  7.823499E-01
         4  20  1.846167E+06  4.396490E+04  1.082352E+05 -5.659664E+04  9.806517E+04 -8.914542E+00
         4  21  1.864414E+06  1.995867E+05  2.216400E+05 -1.247495E+05  1.539630E+05 -3.084924E+01
         4  22  1.864574E+06  5.986401E+03  6.056203E+04  5.805851E-10  4.216823E+04 -7.045830E-10
         4  23  1.846163E+06  4.395889E+04  1.082344E+05  7.365691E-10  9.806517E+04 -4.420693E-10
         4  24  1.864397E+06  1.995576E+05  2.216358E+05 -1.334659E-09  1.539630E+05 -1.606727E-10
         4  25  1.864574E+06  5.986651E+03  6.056207E+04 -1.155146E+04  4.216823E+04 -7.823499E-01
         4  26  1.846167E+06  4.396490E+04  1.082352E+05  5.659664E+04  9.806517E+04  8.914542E+00
         4  27  1.864414E+06  1.995867E+05  2.216400E+05  1.247495E+05  1.539630E+05  3.084924E+01
         5   1 -7.067223E+05 -1.778338E+06 -7.011631E+05  5.663252E+05 -2.643970E+04 -2.590160E+05
         5   2 -4.543820E+05 -1.289381E+06 -4.329984E+05  4.619700E+05 -8.071460E+04 -1.236829E+05
         5   3 -3.096081E+05 -8.445659E+05 -2.799604E+05  4.600986E+05 -7.984353E+04  1.176501E+04
         5   4 -1.557318E+05  4.472658E+05 -1.729683E+05  4.707120E+05 -2.627219E+04 -1.217781E+05
         5   5 -3.413287E+04  4.615999E+05 -8.314165E+04  4.193798E+05 -8.063561E+04 -7.873747E+04
         5   6 -3.874047E+03  4.477603E+05 -4.412506E+04  4.705590E+05 -7.990097E+04 -3.569559E+04
         5   7  3.949476E+05  2.677485E+06  3.549575E+05  3.747509E+05 -2.614751E+04  1.595093E+04
         5   8  3.859363E+05  2.215520E+06  2.665695E+05  3.766651E+05 -8.056296E+04 -3.366738E+04
         5   9  3.017672E+05  1.741715E+06  1.916515E+05  4.810406E+05 -7.995991E+04 -8.325236E+04
         5  10 -7.067411E+05 -1.778410E+06 -7.012908E+05  5.663197E+05 -4.872300E-10 -2.075162E-09
         5  11 -4.543931E+05 -1.289399E+06 -4.330394E+05  4.619619E+05 -9.401266E-10 -1.083294E-09
         5  12 -3.096150E+05 -8.445678E+05 -2.799727E+05  4.600994E+05  5.510563E-10 -4.642902E-10
         5  13 -1.557365E+05  4.472497E+05 -1.729974E+05  4.707094E+05 -3.546129E-10  1.674193E-11
         5  14 -3.414151E+04  4.615915E+05 -8.316549E+04  4.193747E+05 -1.092043E-10  3.013442E-12
         5  15 -3.881243E+03  4.477572E+05 -4.413944E+04  4.705567E+05 -3.147744E-10  6.208566E-11
         5  16  3.949468E+05  2.677485E+06  3.549557E+05  3.747512E+05 -3.479460E-10  2.079170E-09
         5  17  3.859290E+05  2.215517E+06  2.665552E+05  3.766629E+05 -1.388200E-09  1.123831E-09
         5  18  3.017585E+05  1.741706E+06  1.916265E+05  4.810352E+05  4.011561E-10  5.280738E-10
         5  19 -7.067223E+05 -1.778338E+06 -7.011631E+05  5.663252E+05  2.643970E+04  2.590160E+05
         5  20 -4.543820E+05 -1.289381E+06 -4.329984E+05  4.619700E+05  8.071460E+04  1.236829E+05
         5  21 -3.096081E+05 -8.445659E+05 -2.799604E+05  4.600986E+05  7.984353E+04 -1.176501E+04
         5  22 -1.557318E+05  4.472658E+05 -1.729683E+05  4.707120E+05  2.627219E+04  1.217781E+05
         5  23 -3.413287E+04  4.615999E+05 -8.314165E+04  4.193798E+05  8.063561E+04  7.873747E+04
         5  24 -3.874047E+03  4.477603E+05 -4.412506E+04  4.705590E+05  7.990097E+04  3.569559E+04
         5  25  3.949476E+05  2.677485E+06  3.549575E+05  3.747509E+05  2.614751E+04 -1.595093E+04
         5  26  3.859363E+05  2.215520E+06  2.665695E+05  3.766651E+05  8.056296E+04  3.366738E+04
         5  27  3.017672E+05  1.741715E+06  1.916515E+05  4.810406E+05  7.995991E+04  8.325236E+04
         6   1 -2.388727E+05 -5.318025E+05 -2.107063E+05  4.728083E+05 -6.219969E+04  1.130410E+04
         6   2 -1.214752E+05 -6.417455E+04 -1.040377E+05  4.188186E+05 -3.643666E+04  2.197972E+04
         6   3 -8.101307E+03  4.010851E+05 -5.400020E+03  4.706969E+05 -8.527773E+03  3.265051E+04
         6   4 -6.088430E+03  4.537244E+05 -3.235133E+04  4.713171E+05 -6.225909E+04 -3.015015E+04
         6   5  2.539262E+02  4.547740E+05 -1.421950E+04  4.183778E+05 -3.651015E+04 -2.307942E+04
         6   6  3.214358E+03  4.538788E+05 -1.601687E+03  4.713019E+05 -8.616637E+03 -1.602118E+04
         6   7  2.266423E+05  1.440200E+06  1.459719E+05  4.698229E+05 -6.231822E+04 -7.166840E+04
         6   8  1.219696E+05  9.739910E+05  7.559703E+04  4.179364E+05 -3.658353E+04 -6.817506E+04
         6   9  1.453122E+04  5.066806E+05  2.205655E+03  4.719069E+05 -8.705591E+03 -6.469672E+04
         6  10 -2.388769E+05 -5.318037E+05 -2.107138E+05  4.728088E+05  1.649270E-09 -5.590225E-08
         6  11 -1.214767E+05 -6.417542E+04 -1.040411E+05  4.188192E+05  2.967880E-09  2.831163E-10
         6  12 -8.101672E+03  4.010839E+05 -5.402160E+03  4.706971E+05  1.846852E-09  5.626781E-08
         6  13 -6.092835E+03  4.537223E+05 -3.236031E+04  4.713156E+05  2.039367E-09 -3.486547E-11
         6  14  2.523525E+02  4.547730E+05 -1.422300E+04  4.183771E+05  2.646004E-09 -2.030902E-11
         6  15  3.214209E+03  4.538785E+05 -1.602308E+03  4.713018E+05  1.840987E-09 -9.093019E-12
         6  16  2.266368E+05  1.440194E+06  1.459549E+05  4.698193E+05  1.688071E-09  5.593077E-08
         6  17  1.219669E+05  9.739856E+05  7.558580E+04  4.179344E+05  1.713421E-09 -2.806155E-10
         6  18  1.453002E+04  5.066761E+05  2.197655E+03  4.719065E+05  2.126758E-09 -5.627665E-08
         6  19 -2.388727E+05 -5.318025E+05 -2.107063E+05  4.728083E+05  6.219969E+04 -1.130410E+04
         6  20 -1.214752E+05 -6.417455E+04 -1.040377E+05  4.188186E+05  3.643666E+04 -2.197972E+04
         6  21 -8.101307E+03  4.010851E+05 -5.400020E+03  4.706969E+05  8.527773E+03 -3.265051E+04
         6  22 -6.088430E+03  4.537244E+05 -3.235133E+04  4.713171E+05  6.225909E+04  3.015015E+04
         6  23  2.539262E+02  4.547740E+05 -1.421950E+04  4.183778E+05  3.651015E+04  2.307942E+04
         6  24  3.214358E+03  4.538788E+05 -1.601687E+03  4.713019E+05  8.616637E+03  1.602118E+04
         6  25  2.266423E+05  1.440200E+06  1.459719E+05  4.698229E+05  6.231822E+04  7.166840E+04
         6  26  1.219696E+05  9.739910E+05  7.559703E+04  4.179364E+05  3.658353E+04  6.817506E+04
         6  27  1.453122E+04  5.066806E+05  2.205655E+03  4.719069E+05  8.705591E+03  6.469672E+04
         7   1  6.344323E+04  7.090394E+05  5.615517E+04  4.684344E+05  1.023687E+04  3.566143E+04
         7   2  1.829937E+05  1.167993E+06  1.684818E+05  4.303044E+05  2.550865E+04 -2.516962E+04
         7   3  3.348079E+05  1.642966E+06  3.283646E+05  4.963361E+05  1.008901E+04 -8.602501E+04
         7   4  2.419727E+03  4.558315E+05  4.021098E+03  4.709309E+05  1.014348E+04 -1.600487E+04
         7   5  9.779615E+03  4.522728E+05  1.766153E+04  4.188239E+05  2.551126E+04 -2.520143E+04
         7   6  4.048414E+04  4.556054E+05  4.305723E+04  4.708776E+05  1.017404E+04 -3.437668E+04
         7   7 -5.860636E+04  2.026901E+05 -4.810639E+04  4.734263E+05  1.004964E+04 -6.765048E+04
         7   8 -1.634670E+05 -2.629648E+05 -1.331875E+05  4.073566E+05  2.551387E+04 -2.523320E+04
         7   9 -2.539383E+05 -7.304602E+05 -2.423400E+05  4.454669E+05  1.025495E+04  1.717350E+04
         7  10  6.344277E+04  7.090380E+05  5.615259E+04  4.684341E+05 -3.796255E-11  1.760006E-10
         7  11  1.829928E+05  1.167993E+06  1.684794E+05  4.303049E+05 -1.051562E-09  9.221442E-10
         7  12  3.348058E+05  1.642958E+06  3.283505E+05  4.963368E+05 -2.910741E-10  2.171622E-09
         7  13  2.419547E+03  4.558312E+05  4.020423E+03  4.709310E+05  6.886595E-10 -4.820368E-11
         7  14  9.778745E+03  4.522719E+05  1.765911E+04  4.188245E+05 -9.833513E-10  1.719364E-11
         7  15  4.048371E+04  4.556041E+05  4.305482E+04  4.708778E+05 -1.499914E-10 -4.182822E-11
         7  16 -5.860769E+04  2.026852E+05 -4.811518E+04  4.734268E+05  7.412409E-10 -2.057982E-10
         7  17 -1.634679E+05 -2.629656E+05 -1.331899E+05  4.073571E+05 -7.957219E-10 -8.846612E-10
         7  18 -2.539385E+05 -7.304605E+05 -2.423407E+05  4.454667E+05 -3.671354E-10 -2.166190E-09
         7  19  6.344323E+04  7.090394E+05  5.615517E+04  4.684344E+05 -1.023687E+04 -3.566143E+04
         7  20  1.829937E+05  1.167993E+06  1.684818E+05  4.303044E+05 -2.550865E+04  2.516962E+04
         7  21  3.348079E+05  1.642966E+06  3.283646E+05  4.963361E+05 -1.008901E+04  8.602501E+04
         7  22  2.419727E+03  4.558315E+05  4.021098E+03  4.709309E+05 -1.014348E+04  1.600487E+04
         7  23  9.779615E+03  4.522728E+05  1.766153E+04  4.188239E+05 -2.551126E+04  2.520143E+04
         7  24  4.048414E+04  4.556054E+05  4.305723E+04  4.708776E+05 -1.017404E+04  3.437668E+04
         7  25 -5.860636E+04  2.026901E+05 -4.810639E+04  4.734263E+05 -1.004964E+04  6.765048E+04
         7  26 -1.634670E+05 -2.629648E+05 -1.331875E+05  4.073566E+05 -2.551387E+04  2.523320E+04
         7  27 -2.539383E+05 -7.304602E+05 -2.423400E+05  4.454669E+05 -1.025495E+04 -1.717350E+04
         8   1  5.057089E+05  1.229191E+05 -1.252467E+05  4.163917E+05 -1.960726E+04 -2.380300E+03
         8   2  5.685874E+05  1.470477E+05 -1.026371E+05  4.630591E+05 -1.891990E+04  2.585112E+04
         8   3  6.610947E+05  1.668451E+05 -8.588678E+04  4.950142E+05 -7.352779E+03  3.958069E+04
         8   4  1.080412E+06  4.837220E+05  5.131567E+04  6.795275E+05  2.244662E+04  2.914753E+04
         8   5  1.054927E+06  4.689202E+05  2.519780E+04  6.976512E+05 -1.258989E+03  3.908495E+04
         8   6  1.064340E+06  4.550604E+05  1.436081E+04  7.010617E+05 -1.409220E+04  3.452726E+04
         8   7  1.655461E+06  8.446507E+05  2.278468E+05  9.429176E+05  6.455311E+04  6.070870E+04
         8   8  1.541528E+06  7.909073E+05  1.530125E+05  9.324451E+05  1.642044E+04  5.233150E+04
         8   9  1.467772E+06  7.433765E+05  1.145966E+05  9.072642E+05 -2.083747E+04  2.946935E+04
         8  10  5.057085E+05  1.229190E+05 -1.252474E+05  4.163916E+05  1.240479E-09  3.561852E-10
         8  11  5.685869E+05  1.470469E+05 -1.026390E+05  4.630595E+05 -3.750054E-10 -5.877792E-10
         8  12  6.610942E+05  1.668434E+05 -8.588983E+04  4.950144E+05 -9.411471E-10 -8.804579E-10
         8  13  1.080411E+06  4.837209E+05  5.131313E+04  6.795270E+05 -5.131037E-10 -1.893567E-10
         8  14  1.054927E+06  4.689186E+05  2.519493E+04  6.976512E+05  3.232541E-10 -5.085354E-10
         8  15  1.064340E+06  4.550591E+05  1.435819E+04  7.010620E+05 -6.711807E-10 -2.832399E-10
         8  16  1.655455E+06  8.446456E+05  2.278320E+05  9.429145E+05 -1.257021E-09 -7.631605E-10
         8  17  1.541527E+06  7.909043E+05  1.530069E+05  9.324444E+05 -6.539854E-10 -4.203004E-10
         8  18  1.467771E+06  7.433755E+05  1.145941E+05  9.072647E+05  9.035828E-10  3.533931E-10
         8  19  5.057089E+05  1.229191E+05 -1.252467E+05  4.163917E+05  1.960726E+04  2.380300E+03
         8  20  5.685874E+05  1.470477E+05 -1.026371E+05  4.630591E+05  1.891990E+04 -2.585112E+04
         8  21  6.610947E+05  1.668451E+05 -8.588678E+04  4.950142E+05  7.352779E+03 -3.958069E+04
         8  22  1.080412E+06  4.837220E+05  5.131567E+04  6.795275E+05 -2.244662E+04 -2.914753E+04
         8  23  1.054927E+06  4.689202E+05  2.519780E+04  6.976512E+05  1.258989E+03 -3.908495E+04
         8  24  1.064340E+06  4.550604E+05  1.436081E+04  7.010617E+05  1.409220E+04 -3.452726E+04
         8  25  1.655461E+06  8.446507E+05  2.278468E+05  9.429176E+05 -6.455311E+04 -6.070870E+04
         8  26  1.541528E+06  7.909073E+05  1.530125E+05  9.324451E+05 -1.642044E+04 -5.233150E+04
         8  27  1.467772E+06  7.433765E+05  1.145966E+05  9.072642E+05  2.083747E+04 -2.946935E+04
         9   1  7.026717E+05  2.020642E+05 -7.678956E+04  5.177521E+05 -8.602270E+03  3.457378E+04
         9   2  7.609765E+05  2.593580E+05 -6.203637E+04  5.560027E+05 -6.631679E+03  3.032911E+04
         9   3  8.405380E+05  2.967892E+05 -4.640033E+04  5.879329E+05 -3.703060E+03  2.480300E+04
         9   4  1.063735E+06  4.546689E+05  1.133320E+04  6.998365E+05 -1.368399E+04  3.076347E+04
         9   5  1.052505E+06  4.636925E+05  7.354739E+03  7.035171E+05 -1.387033E+04  2.490431E+04
         9   6  1.062991E+06  4.533178E+05  6.125412E+03  7.008726E+05 -1.309886E+04  1.776425E+04
         9   7  1.424954E+06  7.073553E+05  9.944911E+04  8.820458E+05 -1.876975E+04  2.695015E+04
         9   8  1.344133E+06  6.680782E+05  7.674060E+04  8.511114E+05 -2.111352E+04  1.947611E+04
         9   9  1.285497E+06  6.098738E+05  5.864716E+04  8.138571E+05 -2.249899E+04  1.072226E+04
         9  10  7.026713E+05  2.020629E+05 -7.679195E+04  5.177523E+05  2.832076E-10  1.144614E-10
         9  11  7.609762E+05  2.593570E+05 -6.203819E+04  5.560029E+05 -2.860267E-10 -1.844653E-10
         9  12  8.405378E+05  2.967886E+05 -4.640152E+04  5.879330E+05 -9.111170E-10 -2.954238E-10
         9  13  1.063734E+06  4.546678E+05  1.133106E+04  6.998368E+05 -4.038086E-10 -1.750246E-10
         9  14  1.052505E+06  4.636918E+05  7.353211E+03  7.035174E+05 -1.337785E-10 -2.361399E-10
         9  15  1.062990E+06  4.533174E+05  6.124496E+03  7.008727E+05 -2.607517E-10 -7.889718E-11
         9  16  1.424953E+06  7.073544E+05  9.944708E+04  8.820462E+05 -2.970686E-10 -4.238240E-10
         9  17  1.344132E+06  6.680777E+05  7.673905E+04  8.511118E+05  4.666280E-10 -3.244390E-10
         9  18  1.285496E+06  6.098736E+05  5.864600E+04  8.138573E+05  2.802093E-10  1.538665E-10
         9  19  7.026717E+05  2.020642E+05 -7.678956E+04  5.177521E+05  8.602270E+03 -3.457378E+04
         9  20  7.609765E+05  2.593580E+05 -6.203637E+04  5.560027E+05  6.631679E+03 -3.032911E+04
         9  21  8.405380E+05  2.967892E+05 -4.640033E+04  5.879329E+05  3.703060E+03 -2.480300E+04
         9  22  1.063735E+06  4.546689E+05  1.133320E+04  6.998365E+05  1.368399E+04 -3.076347E+04
         9  23  1.052505E+06  4.636925E+05  7.354739E+03  7.035171E+05  1.387033E+04 -2.490431E+04
         9  24  1.062991E+06  4.533178E+05  6.125412E+03  7.008726E+05  1.309886E+04 -1.776425E+04
         9  25  1.424954E+06  7.073553E+05  9.944911E+04  8.820458E+05  1.876975E+04 -2.695015E+04
         9  26  1.344133E+06  6.680782E+05  7.674060E+04  8.511114E+05  2.111352E+04 -1.947611E+04
         9  27  1.285497E+06  6.098738E+05  5.864716E+04  8.138571E+05  2.249899E+04 -1.072226E+04
        10   1  8.850459E+05  3.286181E+05 -3.531931E+04  6.106682E+05 -2.275034E+03  2.075593E+04
        10   2  9.428815E+05  3.871324E+05 -1.750139E+04  6.484514E+05 -1.233662E+03  1.292011E+04
        10   3  1.021945E+06  4.254385E+05  2.930031E+03  6.802782E+05 -1.618395E+02  5.041493E+03
        10   4  1.062981E+06  4.533084E+05  6.252182E+03  7.008309E+05 -1.152665E+04  1.382605E+04
        10   5  1.052401E+06  4.634726E+05  7.986020E+03  7.037645E+05 -1.055776E+04  5.936687E+03
        10   6  1.063058E+06  4.534410E+05  1.239521E+04  7.007372E+05 -9.557996E+03 -1.995159E+03
        10   7  1.240952E+06  5.780182E+05  4.782227E+04  7.910237E+05 -2.078181E+04  6.893520E+03
        10   8  1.161935E+06  5.398209E+05  3.347357E+04  7.590895E+05 -1.988414E+04 -1.048424E+03
        10   9  1.104174E+06  4.814451E+05  2.186105E+04  7.211981E+05 -1.895515E+04 -9.032536E+03
        10  10  8.850458E+05  3.286176E+05 -3.532013E+04  6.106682E+05  3.919366E-11  6.424543E-11
        10  11  9.428814E+05  3.871322E+05 -1.750170E+04  6.484514E+05 -5.269488E-10  3.805441E-11
        10  12  1.021945E+06  4.254385E+05  2.929983E+03  6.802782E+05 -1.230052E-09  6.157035E-11
        10  13  1.062980E+06  4.533082E+05  6.251573E+03  7.008311E+05  2.185321E-10  8.235083E-12
        10  14  1.052400E+06  4.634725E+05  7.985745E+03  7.037645E+05 -6.719339E-10  2.244946E-10
        10  15  1.063058E+06  4.534410E+05  1.239503E+04  7.007371E+05 -6.983068E-10  3.617123E-10
        10  16  1.240952E+06  5.780180E+05  4.782137E+04  7.910238E+05 -3.140524E-10  9.067792E-12
        10  17  1.161934E+06  5.398208E+05  3.347282E+04  7.590894E+05  4.655774E-10  3.322319E-10
        10  18  1.104174E+06  4.814449E+05  2.186023E+04  7.211980E+05  7.499833E-11  6.802787E-10
        10  19  8.850459E+05  3.286181E+05 -3.531931E+04  6.106682E+05  2.275034E+03 -2.075593E+04
        10  20  9.428815E+05  3.871324E+05 -1.750139E+04  6.484514E+05  1.233662E+03 -1.292011E+04
        10  21  1.021945E+06  4.254385E+05  2.930031E+03  6.802782E+05  1.618395E+02 -5.041493E+03
        10  22  1.062981E+06  4.533084E+05  6.252182E+03  7.008309E+05  1.152665E+04 -1.382605E+04
        10  23  1.052401E+06  4.634726E+05  7.986020E+03  7.037645E+05  1.055776E+04 -5.936687E+03
        10  24  1.063058E+06  4.534410E+05  1.239521E+04  7.007372E+05  9.557996E+03  1.995159E+03
        10  25  1.240952E+06  5.780182E+05  4.782227E+04  7.910237E+05  2.078181E+04 -6.893520E+03
        10  26  1.161935E+06  5.398209E+05  3.347357E+04  7.590895E+05  1.988414E+04  1.048424E+03
        10  27  1.104174E+06  4.814451E+05  2.186105E+04  7.211981E+05  1.895515E+04  9.032536E+03
        11   1  1.066007E+06  4.580141E+05  1.731962E+04  7.036513E+05  4.001719E+02  3.161482E+02
        11   2  1.126295E+06  5.142561E+05  4.501621E+04  7.390211E+05 -7.838666E+03 -1.403011E+04
        11   3  1.212111E+06  5.556782E+05  8.433139E+04  7.667865E+05 -1.666278E+04 -2.759812E+04
        11   4  1.063363E+06  4.535293E+05  1.588209E+04  7.011533E+05 -9.072405E+03 -6.777650E+03
        11   5  1.052512E+06  4.642472E+05  2.715239E+04  7.025772E+05 -1.599797E+04 -2.014087E+04
        11   6  1.066904E+06  4.598610E+05  4.890708E+04  6.963937E+05 -2.350713E+04 -3.272467E+04
        11   7  1.060719E+06  4.490448E+05  1.444510E+04  6.986554E+05 -1.854476E+04 -1.387121E+04
        11   8  9.787371E+05  4.142418E+05  9.288831E+03  6.661386E+05 -2.415590E+04 -2.625065E+04
        11   9  9.217200E+05  3.640547E+05  1.348157E+04  6.260194E+05 -3.034932E+04 -3.784974E+04
        11  10  1.066007E+06  4.580141E+05  1.731962E+04  7.036513E+05  3.720287E-09  3.165628E-09
        11  11  1.126295E+06  5.142559E+05  4.501572E+04  7.390210E+05 -5.259819E-09 -5.605473E-09
        11  12  1.212111E+06  5.556774E+05  8.432944E+04  7.667861E+05 -1.977574E-08 -1.603752E-08
        11  13  1.063363E+06  4.535293E+05  1.588185E+04  7.011532E+05  9.254234E-10  8.102313E-10
        11  14  1.052512E+06  4.642467E+05  2.715115E+04  7.025769E+05 -5.525699E-10 -2.585042E-10
        11  15  1.066903E+06  4.598597E+05  4.890403E+04  6.963931E+05 -5.635890E-09 -4.532981E-09
        11  16  1.060719E+06  4.490445E+05  1.444410E+04  6.986552E+05 -2.981938E-09 -1.587473E-09
        11  17  9.787363E+05  4.142409E+05  9.286444E+03  6.661381E+05  5.157720E-09  5.251814E-09
        11  18  9.217186E+05  3.640529E+05  1.347715E+04  6.260185E+05  9.351658E-09  6.902963E-09
        11  19  1.066007E+06  4.580141E+05  1.731962E+04  7.036513E+05 -4.001719E+02 -3.161482E+02
        11  20  1.126295E+06  5.142561E+05  4.501621E+04  7.390211E+05  7.838666E+03  1.403011E+04
        11  21  1.212111E+06  5.556782E+05  8.433139E+04  7.667865E+05  1.666278E+04  2.759812E+04
        11  22  1.063363E+06  4.535293E+05  1.588209E+04  7.011533E+05  9.072405E+03  6.777650E+03
        11  23  1.052512E+06  4.642472E+05  2.715239E+04  7.025772E+05  1.599797E+04  2.014087E+04
        11  24  1.066904E+06  4.598610E+05  4.890708E+04  6.963937E+05  2.350713E+04  3.272467E+04
        11  25  1.060719E+06  4.490448E+05  1.444510E+04  6.986554E+05  1.854476E+04  1.387121E+04
        11  26  9.787371E+05  4.142418E+05  9.288831E+03  6.661386E+05  2.415590E+04  2.625065E+04
        11  27  9.217200E+05  3.640547E+05  1.348157E+04  6.260194E+05  3.034932E+04  3.784974E+04
        12   1  1.245294E+06  6.043155E+05  1.111325E+05  7.997002E+05 -2.019850E+04 -3.475143E+04
        12   2  1.376091E+06  6.111650E+05  1.862910E+05  7.863555E+05 -8.304564E+04 -8.218648E+04
        12   3  1.601168E+06  6.968628E+05  3.451969E+05  7.251564E+05 -1.525551E+05 -1.207579E+05
        12   4  1.070743E+06  4.608109E+05  6.411221E+04  7.018552E+05 -2.805068E+04 -4.063221E+04
        12   5  1.062739E+06  4.899161E+05  1.163114E+05  6.755771E+05 -7.594955E+04 -7.688600E+04