
 stresses (elem, integ.pnt.,sxx,syy,szz,sxy,sxz,syz) for set ELALL and time  0.1000000E+01

         1   1 -1.934994E+06 -3.819253E+04 -4.507864E+04 -1.963604E+04 -3.101765E+04  9.839759E-01
         1   2 -1.930105E+06 -1.726537E+03 -2.081434E+04 -7.265293E+03 -2.006160E+04  2.354718E-01
         1   3 -1.934957E+06  1.520940E+03 -1.200394E+04  5.105778E+03 -9.105402E+03 -7.510778E-02
         1   4 -1.934995E+06 -3.819326E+04 -4.507874E+04  8.453555E-09 -3.101765E+04 -1.852331E-10
         1   5 -1.930105E+06 -1.726636E+03 -2.081435E+04  5.867140E-09 -2.006160E+04 -5.543314E-10
         1   6 -1.934957E+06  1.520891E+03 -1.200394E+04  7.591373E-09 -9.105402E+03 -4.017611E-10
         1   7 -1.934994E+06 -3.819253E+04 -4.507864E+04  1.963604E+04 -3.101765E+04 -9.839759E-01
         1   8 -1.930105E+06 -1.726537E+03 -2.081434E+04  7.265293E+03 -2.006160E+04 -2.354718E-01
         1   9 -1.934957E+06  1.520940E+03 -1.200394E+04 -5.105778E+03 -9.105402E+03  7.510778E-02
         1  10 -1.934995E+06 -3.819279E+04 -4.508045E+04 -1.963604E+04  3.207998E-10 -3.933781E-11
         1  11 -1.930105E+06 -1.726645E+03 -2.081510E+04 -7.265293E+03  3.151146E-09 -1.706563E-11
         1  12 -1.934957E+06  1.520918E+03 -1.200409E+04  5.105778E+03  9.766145E-10  4.092962E-10
         1  13 -1.934996E+06 -3.819352E+04 -4.508056E+04 -3.360305E-11 -1.008086E-10  8.695140E-11
         1  14 -1.930105E+06 -1.726744E+03 -2.081511E+04 -2.691614E-09 -2.163116E-09  2.480168E-10
         1  15 -1.934957E+06  1.520869E+03 -1.200410E+04  2.268226E-11  1.535527E-10  2.901444E-10
         1  16 -1.934995E+06 -3.819279E+04 -4.508045E+04  1.963604E+04  7.646379E-10  1.755606E-10
         1  17 -1.930105E+06 -1.726645E+03 -2.081510E+04  7.265293E+03 -4.513282E-10  3.428411E-10
         1  18 -1.934957E+06  1.520918E+03 -1.200409E+04 -5.105778E+03  1.086867E-09  1.353670E-10
         1  19 -1.934994E+06 -3.819253E+04 -4.507864E+04 -1.963604E+04  3.101765E+04 -9.839759E-01
         1  20 -1.930105E+06 -1.726537E+03 -2.081434E+04 -7.265293E+03  2.006160E+04 -2.354718E-01
         1  21 -1.934957E+06  1.520940E+03 -1.200394E+04  5.105778E+03  9.105402E+03  7.510779E-02
         1  22 -1.934995E+06 -3.819326E+04 -4.507874E+04  4.367497E-09  3.101765E+04  3.624736E-10
         1  23 -1.930105E+06 -1.726636E+03 -2.081435E+04 -9.131658E-09  2.006160E+04  1.045530E-09
         1  24 -1.934957E+06  1.520891E+03 -1.200394E+04 -1.118557E-09  9.105402E+03  9.818835E-10
         1  25 -1.934994E+06 -3.819253E+04 -4.507864E+04  1.963604E+04  3.101765E+04  9.839759E-01
         1  26 -1.930105E+06 -1.726537E+03 -2.081434E+04  7.265293E+03  2.006160E+04  2.354718E-01
         1  27 -1.934957E+06  1.520940E+03 -1.200394E+04 -5.105778E+03  9.105402E+03 -7.510778E-02
         2   1 -1.932963E+06 -1.720008E+03 -9.456421E+03 -5.776617E+02 -7.448515E+03  6.951296E-03
         2   2 -1.932589E+06 -1.099761E+00 -5.184127E+03 -1.161196E+02 -4.856685E+03  9.111047E-04
         2   3 -1.932959E+06  9.854384E+01 -3.007957E+03  3.454217E+02 -2.264847E+03 -1.263895E-03
         2   4 -1.932963E+06 -1.720009E+03 -9.456421E+03  8.192860E-09 -7.448515E+03  1.002715E-10
         2   5 -1.932589E+06 -1.099786E+00 -5.184127E+03  3.289323E-09 -4.856685E+03  9.435292E-10
         2   6 -1.932959E+06  9.854361E+01 -3.007957E+03  7.791490E-09 -2.264847E+03  7.756862E-10
         2   7 -1.932963E+06 -1.720008E+03 -9.456421E+03  5.776617E+02 -7.448515E+03 -6.951296E-03
         2   8 -1.932589E+06 -1.099761E+00 -5.184127E+03  1.161196E+02 -4.856685E+03 -9.111028E-04
         2   9 -1.932959E+06  9.854384E+01 -3.007957E+03 -3.454217E+02 -2.264847E+03  1.263897E-03
         2  10 -1.932963E+06 -1.720023E+03 -9.456525E+03 -5.776617E+02  1.644996E-09  3.174970E-10
         2  11 -1.932589E+06 -1.106117E+00 -5.184171E+03 -1.161196E+02 -2.241233E-09 -1.683793E-10
         2  12 -1.932959E+06  9.854246E+01 -3.007967E+03  3.454217E+02 -1.619411E-09  1.474472E-10
         2  13 -1.932963E+06 -1.720024E+03 -9.456525E+03 -4.687450E-10 -2.125408E-09  2.167599E-10
         2  14 -1.932589E+06 -1.106143E+00 -5.184171E+03  3.325030E-09 -2.076743E-09  2.422713E-10
         2  15 -1.932959E+06  9.854223E+01 -3.007967E+03  1.729719E-09 -1.150656E-09  5.731185E-10
         2  16 -1.932963E+06 -1.720023E+03 -9.456525E+03  5.776617E+02 -1.569389E-09  1.384238E-10
         2  17 -1.932589E+06 -1.106117E+00 -5.184171E+03  1.161196E+02  1.043384E-09  6.136223E-10
         2  18 -1.932959E+06  9.854246E+01 -3.007967E+03 -3.454217E+02  1.357238E-09  9.245676E-10
         2  19 -1.932963E+06 -1.720008E+03 -9.456421E+03 -5.776617E+02  7.448515E+03 -6.951296E-03
         2  20 -1.932589E+06 -1.099761E+00 -5.184127E+03 -1.161196E+02  4.856685E+03 -9.111045E-04
         2  21 -1.932959E+06  9.854384E+01 -3.007957E+03  3.454217E+02  2.264847E+03  1.263895E-03
         2  22 -1.932963E+06 -1.720009E+03 -9.456421E+03  5.922977E-09  7.448515E+03  3.193816E-10
         2  23 -1.932589E+06 -1.099786E+00 -5.184127E+03 -9.354174E-10  4.856685E+03 -4.226288E-10
         2  24 -1.932959E+06  9.854361E+01 -3.007957E+03  1.669041E-08  2.264847E+03  3.646504E-10
         2  25 -1.932963E+06 -1.720008E+03 -9.456421E+03  5.776617E+02  7.448515E+03  6.951296E-03
         2  26 -1.932589E+06 -1.099761E+00 -5.184127E+03  1.161196E+02  4.856685E+03  9.111036E-04
         2  27 -1.932959E+06  9.854384E+01 -3.007957E+03 -3.454217E+02  2.264847E+03 -1.263895E-03
         3   1 -1.932818E+06 -5.165026E+01 -2.320271E+03  6.181347E+01 -1.795385E+03 -1.792927E-04
         3   2 -1.932763E+06  2.226697E+01 -1.384306E+03  4.727662E+01 -1.110496E+03 -8.481798E-05
         3   3 -1.932817E+06  1.379865E+01 -9.158593E+02  3.273999E+01 -4.256167E+02 -2.251362E-05
         3   4 -1.932818E+06 -5.165027E+01 -2.320271E+03 -1.090423E-09 -1.795385E+03  4.618647E-10
         3   5 -1.932763E+06  2.226697E+01 -1.384306E+03  3.229661E-09 -1.110496E+03 -1.815200E-11
         3   6 -1.932817E+06  1.379865E+01 -9.158593E+02  4.359139E-09 -4.256167E+02 -6.178466E-10
         3   7 -1.932818E+06 -5.165026E+01 -2.320271E+03 -6.181347E+01 -1.795385E+03  1.792938E-04
         3   8 -1.932763E+06  2.226697E+01 -1.384306E+03 -4.727662E+01 -1.110496E+03  8.481769E-05
         3   9 -1.932817E+06  1.379865E+01 -9.158593E+02 -3.273999E+01 -4.256167E+02  2.251278E-05
         3  10 -1.932818E+06 -5.165113E+01 -2.320277E+03  6.181347E+01 -4.821803E-10  3.148369E-10
         3  11 -1.932763E+06  2.226664E+01 -1.384308E+03  4.727662E+01 -8.326748E-10 -3.847178E-10
         3  12 -1.932817E+06  1.379860E+01 -9.158596E+02  3.273999E+01  2.087151E-09 -1.437985E-09
         3  13 -1.932818E+06 -5.165113E+01 -2.320277E+03  5.231982E-09 -2.353569E-11  5.183443E-10
         3  14 -1.932763E+06  2.226664E+01 -1.384308E+03  2.012812E-09 -2.152268E-09 -2.750883E-11
         3  15 -1.932817E+06  1.379860E+01 -9.158596E+02  2.005250E-09 -1.816029E-09 -5.688096E-10
         3  16 -1.932818E+06 -5.165113E+01 -2.320277E+03 -6.181347E+01 -1.195892E-09  7.840016E-10
         3  17 -1.932763E+06  2.226664E+01 -1.384308E+03 -4.727662E+01 -2.164479E-09  2.520520E-10
         3  18 -1.932817E+06  1.379860E+01 -9.158596E+02 -3.273999E+01 -2.016152E-09  2.799787E-10
         3  19 -1.932818E+06 -5.165026E+01 -2.320271E+03  6.181347E+01  1.795385E+03  1.792932E-04
         3  20 -1.932763E+06  2.226697E+01 -1.384306E+03  4.727662E+01  1.110496E+03  8.481764E-05
         3  21 -1.932817E+06  1.379865E+01 -9.158593E+02  3.273999E+01  4.256167E+02  2.251131E-05
         3  22 -1.932818E+06 -5.165027E+01 -2.320271E+03  7.258243E-09  1.795385E+03  5.453475E-10
         3  23 -1.932763E+06  2.226697E+01 -1.384306E+03  6.159841E-09  1.110496E+03 -9.847602E-11
         3  24 -1.932817E+06  1.379865E+01 -9.158593E+02  3.983205E-09  4.256167E+02 -4.941567E-10
         3  25 -1.932818E+06 -5.165026E+01 -2.320271E+03 -6.181347E+01  1.795385E+03 -1.792923E-04
         3  26 -1.932763E+06  2.226697E+01 -1.384306E+03 -4.727662E+01  1.110496E+03 -8.481772E-05
         3  27 -1.932817E+06  1.379865E+01 -9.158593E+02 -3.273999E+01  4.256167E+02 -2.251183E-05
         4   1 -1.932804E+06  7.604011E+00 -7.959699E+02  1.577165E+01 -2.709608E+02 -6.904498E-06
         4   2 -1.932779E+06  1.413704E+01 -7.334303E+02 -6.213999E+00  9.115472E+01 -9.126244E-07
         4   3 -1.932804E+06  1.330495E+01 -9.090365E+02 -2.819997E+01  4.532756E+02 -2.065106E-05
         4   4 -1.932804E+06  7.604010E+00 -7.959699E+02  2.730245E-10 -2.709608E+02  5.257780E-10
         4   5 -1.932779E+06  1.413704E+01 -7.334303E+02 -8.498611E-09  9.115472E+01  2.316847E-09
         4   6 -1.932804E+06  1.330495E+01 -9.090365E+02  3.741695E-09  4.532756E+02 -4.307358E-10
         4   7 -1.932804E+06  7.604011E+00 -7.959699E+02 -1.577165E+01 -2.709608E+02  6.905315E-06
         4   8 -1.932779E+06  1.413704E+01 -7.334303E+02  6.213999E+00  9.115472E+01  9.171512E-07
         4   9 -1.932804E+06  1.330495E+01 -9.090365E+02  2.819997E+01  4.532756E+02  2.065022E-05
         4  10 -1.932804E+06  7.603991E+00 -7.959700E+02  1.577165E+01 -3.197194E-09 -7.476568E-10
         4  11 -1.932779E+06  1.413704E+01 -7.334303E+02 -6.213999E+00 -1.402982E-09  1.188638E-09
         4  12 -1.932804E+06  1.330489E+01 -9.090369E+02 -2.819997E+01  9.670091E-10 -1.842075E-10
         4  13 -1.932804E+06  7.603991E+00 -7.959700E+02  8.148735E-10 -1.163480E-09 -3.436483E-11
         4  14 -1.932779E+06  1.413704E+01 -7.334303E+02 -3.128436E-09 -9.887878E-10  9.665301E-10
         4  15 -1.932804E+06  1.330489E+01 -9.090369E+02 -3.876942E-09 -3.231051E-09 -1.951695E-10
         4  16 -1.932804E+06  7.603991E+00 -7.959700E+02 -1.577165E+01  1.428441E-09  7.973462E-10
         4  17 -1.932779E+06  1.413704E+01 -7.334303E+02  6.213999E+00  1.084809E-10  7.481262E-10
         4  18 -1.932804E+06  1.330489E+01 -9.090369E+02  2.819997E+01 -1.537088E-09 -2.558424E-10
         4  19 -1.932804E+06  7.604011E+00 -7.959699E+02  1.577165E+01  2.709608E+02  6.903053E-06
         4  20 -1.932779E+06  1.413704E+01 -7.334303E+02 -6.213999E+00 -9.115472E+01  9.150961E-07
         4  21 -1.932804E+06  1.330495E+01 -9.090365E+02 -2.819997E+01 -4.532756E+02  2.065085E-05
         4  22 -1.932804E+06  7.604010E+00 -7.959699E+02 -7.808473E-10  2.709608E+02 -5.947046E-10
         4  23 -1.932779E+06  1.413704E+01 -7.334303E+02 -4.238174E-09 -9.115472E+01 -3.835613E-10
         4  24 -1.932804E+06  1.330495E+01 -9.090365E+02  7.088760E-09 -4.532756E+02  1.100242E-10
         4  25 -1.932804E+06  7.604011E+00 -7.959699E+02 -1.577165E+01  2.709608E+02 -6.904030E-06
         4  26 -1.932779E+06  1.413704E+01 -7.334303E+02  6.213999E+00 -9.115472E+01 -9.158547E-07
         4  27 -1.932804E+06  1.330495E+01 -9.090365E+02  2.819997E+01 -4.532756E+02 -2.065087E-05
         5   1 -1.932819E+06  1.277355E+01 -1.097358E+03 -3.646058E+01  6.351309E+02 -3.741370E-05
         5   2 -1.932760E+06  3.317363E+01 -1.749887E+03 -8.552906E+01  1.499290E+03 -2.071681E-04
         5   3 -1.932820E+06  2.739546E+01 -2.972879E+03 -1.345976E+02  2.363449E+03 -5.139320E-04
         5   4 -1.932819E+06  1.277355E+01 -1.097358E+03  2.920516E-09  6.351309E+02 -1.858066E-09
         5   5 -1.932760E+06  3.317362E+01 -1.749887E+03  1.047153E-08  1.499290E+03 -9.521515E-10
         5   6 -1.932820E+06  2.739542E+01 -2.972879E+03  1.126310E-08  2.363449E+03  1.676692E-10
         5   7 -1.932819E+06  1.277355E+01 -1.097358E+03  3.646058E+01  6.351309E+02  3.740982E-05
         5   8 -1.932760E+06  3.317363E+01 -1.749887E+03  8.552906E+01  1.499290E+03  2.071659E-04
         5   9 -1.932820E+06  2.739546E+01 -2.972879E+03  1.345976E+02  2.363449E+03  5.139327E-04
         5  10 -1.932819E+06  1.277344E+01 -1.097358E+03 -3.646058E+01 -6.508695E-10 -6.659817E-10
         5  11 -1.932760E+06  3.317303E+01 -1.749891E+03 -8.552906E+01 -6.588511E-10  1.661564E-10
         5  12 -1.932820E+06  2.739395E+01 -2.972889E+03 -1.345976E+02 -5.720521E-10  4.280401E-10
         5  13 -1.932819E+06  1.277344E+01 -1.097358E+03 -1.377724E-09 -4.163466E-09 -9.172422E-10
         5  14 -1.932760E+06  3.317301E+01 -1.749891E+03  6.330804E-09 -4.507301E-10 -5.949908E-10
         5  15 -1.932820E+06  2.739392E+01 -2.972889E+03  3.269574E-09 -2.459369E-09  4.011016E-10
         5  16 -1.932819E+06  1.277344E+01 -1.097358E+03  3.646058E+01 -2.663205E-09 -9.872819E-10
         5  17 -1.932760E+06  3.317303E+01 -1.749891E+03  8.552906E+01 -1.740615E-09 -1.211657E-09
         5  18 -1.932820E+06  2.739395E+01 -2.972889E+03  1.345976E+02 -2.099497E-10  5.069175E-10
         5  19 -1.932819E+06  1.277355E+01 -1.097358E+03 -3.646058E+01 -6.351309E+02  3.741225E-05
         5  20 -1.932760E+06  3.317363E+01 -1.749887E+03 -8.552906E+01 -1.499290E+03  2.071686E-04
         5  21 -1.932820E+06  2.739546E+01 -2.972879E+03 -1.345976E+02 -2.363449E+03  5.139329E-04
         5  22 -1.932819E+06  1.277355E+01 -1.097358E+03  5.089590E-09 -6.351309E+02 -2.213555E-11
         5  23 -1.932760E+06  3.317362E+01 -1.749887E+03 -2.076665E-09 -1.499290E+03 -2.494878E-10
         5  24 -1.932820E+06  2.739542E+01 -2.972879E+03  9.845893E-09 -2.363449E+03  6.765401E-10
         5  25 -1.932819E+06  1.277355E+01 -1.097358E+03  3.646058E+01 -6.351309E+02 -3.741215E-05
         5  26 -1.932760E+06  3.317363E+01 -1.749887E+03  8.552906E+01 -1.499290E+03 -2.071689E-04
         5  27 -1.932820E+06  2.739546E+01 -2.972879E+03  1.345976E+02 -2.363449E+03 -5.139319E-04
         6   1 -1.932915E+06  5.712766E+01 -3.894797E+03 -2.183164E+02  2.983059E+03 -1.052134E-03
         6   2 -1.932645E+06  1.066300E+02 -6.744598E+03 -2.777666E+02  6.320619E+03 -2.836365E-03
         6   3 -1.932919E+06 -2.741814E+02 -1.187990E+04 -3.372162E+02  9.658111E+03 -5.261664E-03
         6   4 -1.932915E+06  5.712757E+01 -3.894797E+03  1.236676E-08  2.983059E+03  4.867460E-10
         6   5 -1.932645E+06  1.066299E+02 -6.744598E+03  5.285769E-09  6.320619E+03  4.536232E-10
         6   6 -1.932919E+06 -2.741816E+02 -1.187990E+04  1.298278E-08  9.658111E+03  5.656522E-10
         6   7 -1.932915E+06  5.712766E+01 -3.894797E+03  2.183164E+02  2.983059E+03  1.052135E-03
         6   8 -1.932645E+06  1.066300E+02 -6.744598E+03  2.777666E+02  6.320619E+03  2.836366E-03
         6   9 -1.932919E+06 -2.741814E+02 -1.187990E+04  3.372162E+02  9.658111E+03  5.261665E-03
         6  10 -1.932915E+06  5.712527E+01 -3.894813E+03 -2.183164E+02 -1.284694E-10  5.748934E-11
         6  11 -1.932645E+06  1.066193E+02 -6.744673E+03 -2.777666E+02 -1.658448E-09 -2.195341E-10
         6  12 -1.932919E+06 -2.742065E+02 -1.188007E+04 -3.372162E+02 -1.714840E-09 -1.041256E-11
         6  13 -1.932915E+06  5.712518E+01 -3.894814E+03  5.762927E-09 -1.745747E-10  6.699550E-10
         6  14 -1.932645E+06  1.066191E+02 -6.744673E+03  5.226961E-09 -2.326832E-09  2.724414E-10
         6  15 -1.932919E+06 -2.742067E+02 -1.188007E+04  6.834875E-09 -2.417694E-09  1.243826E-10
         6  16 -1.932915E+06  5.712527E+01 -3.894813E+03  2.183164E+02 -3.442447E-11  1.175965E-09
         6  17 -1.932645E+06  1.066193E+02 -6.744673E+03  2.777666E+02  1.387134E-10  8.109465E-10
         6  18 -1.932919E+06 -2.742065E+02 -1.188007E+04  3.372162E+02 -1.276778E-09  2.499670E-10
         6  19 -1.932915E+06  5.712766E+01 -3.894797E+03 -2.183164E+02 -2.983059E+03  1.052134E-03
         6  20 -1.932645E+06  1.066300E+02 -6.744598E+03 -2.777666E+02 -6.320619E+03  2.836365E-03
         6  21 -1.932919E+06 -2.741814E+02 -1.187990E+04 -3.372162E+02 -9.658111E+03  5.261663E-03
         6  22 -1.932915E+06  5.712757E+01 -3.894797E+03  1.417460E-08 -2.983059E+03  8.121582E-10
         6  23 -1.932645E+06  1.066299E+02 -6.744598E+03  5.151354E-09 -6.320619E+03  2.045417E-11
         6  24 -1.932919E+06 -2.741816E+02 -1.187990E+04  1.070008E-08 -9.658111E+03 -3.294640E-10
         6  25 -1.932915E+06  5.712766E+01 -3.894797E+03  2.183164E+02 -2.983059E+03 -1.052132E-03
         6  26 -1.932645E+06  1.066300E+02 -6.744598E+03  2.777666E+02 -6.320619E+03 -2.836365E-03
         6  27 -1.932919E+06 -2.741814E+02 -1.187990E+04  3.372162E+02 -9.658111E+03 -5.261664E-03
         7   1 -1.933663E+06  5.134400E+02 -1.556233E+04 -1.824737E+03  1.207477E+04 -3.559607E-02
         7   2 -1.931727E+06 -8.304599E+00 -2.708171E+04  6.021515E+02  2.561576E+04  2.491920E-02
         7   3 -1.933685E+06 -9.029191E+03 -4.956103E+04  3.029098E+03  3.915670E+04  1.916201E-01
         7   4 -1.933663E+06  5.134337E+02 -1.556233E+04  1.842292E-09  1.207477E+04  3.863201E-10
         7   5 -1.931727E+06 -8.305283E+00 -2.708171E+04  4.049615E-09  2.561576E+04  2.784502E-11
         7   6 -1.933685E+06 -9.029208E+03 -4.956103E+04  9.754437E-09  3.915670E+04  5.115819E-10
         7   7 -1.933663E+06  5.134400E+02 -1.556233E+04  1.824737E+03  1.207477E+04  3.559607E-02
         7   8 -1.931727E+06 -8.304599E+00 -2.708171E+04 -6.021515E+02  2.561576E+04 -2.491920E-02
         7   9 -1.933685E+06 -9.029191E+03 -4.956103E+04 -3.029098E+03  3.915670E+04 -1.916201E-01
         7  10 -1.933664E+06  5.134007E+02 -1.556260E+04 -1.824737E+03 -5.540885E-11  1.857382E-10
         7  11 -1.931728E+06 -8.481421E+00 -2.708295E+04  6.021515E+02  2.128141E-09  3.590268E-10
         7  12 -1.933687E+06 -9.029604E+03 -4.956392E+04  3.029098E+03 -3.055015E-10  4.071939E-10
         7  13 -1.933664E+06  5.133944E+02 -1.556260E+04 -2.458079E-09 -2.987041E-09  1.467039E-10
         7  14 -1.931728E+06 -8.482105E+00 -2.708295E+04  1.811211E-09 -1.701226E-09  1.972662E-11
         7  15 -1.933687E+06 -9.029621E+03 -4.956392E+04 -3.579612E-09 -5.469365E-10 -4.292405E-10
         7  16 -1.933664E+06  5.134007E+02 -1.556260E+04  1.824737E+03 -1.104719E-09  1.211063E-10
         7  17 -1.931728E+06 -8.481421E+00 -2.708295E+04 -6.021515E+02 -1.641466E-09 -2.323521E-10
         7  18 -1.933687E+06 -9.029604E+03 -4.956392E+04 -3.029098E+03 -3.850288E-11 -1.214981E-09
         7  19 -1.933663E+06  5.134400E+02 -1.556233E+04 -1.824737E+03 -1.207477E+04  3.559607E-02
         7  20 -1.931727E+06 -8.304599E+00 -2.708171E+04  6.021515E+02 -2.561576E+04 -2.491920E-02
         7  21 -1.933685E+06 -9.029191E+03 -4.956103E+04  3.029098E+03 -3.915670E+04 -1.916201E-01
         7  22 -1.933663E+06  5.134337E+02 -1.556233E+04 -2.468579E-09 -1.207477E+04 -8.321969E-11
         7  23 -1.931727E+06 -8.305283E+00 -2.708171E+04 -1.334096E-08 -2.561576E+04  3.651198E-12
         7  24 -1.933685E+06 -9.029208E+03 -4.956103E+04  5.192022E-10 -3.915670E+04 -1.361671E-09
         7  25 -1.933663E+06  5.134400E+02 -1.556233E+04  1.824737E+03 -1.207477E+04 -3.559607E-02
         7  26 -1.931727E+06 -8.304599E+00 -2.708171E+04 -6.021515E+02 -2.561576E+04  2.491920E-02
         7  27 -1.933685E+06 -9.029191E+03 -4.956103E+04 -3.029098E+03 -3.915670E+04  1.916201E-01
         8   1 -1.944151E+06  7.984074E+03 -6.294907E+04 -2.680319E+04  4.784071E+04 -2.071633E+00
         8   2 -1.918683E+06 -9.060844E+03 -1.092065E+05  3.813434E+04  1.053387E+05  6.489541E+00
         8   3 -1.944334E+06 -2.004476E+05 -2.365591E+05  1.030680E+05  1.628371E+05  2.711407E+01
         8   4 -1.944152E+06  7.982720E+03 -6.294926E+04  5.584994E-09  4.784071E+04  2.436452E-10
         8   5 -1.918684E+06 -9.063585E+03 -1.092069E+05  2.128748E-09  1.053387E+05 -7.783866E-10
         8   6 -1.944346E+06 -2.004676E+05 -2.365619E+05  6.755658E-09  1.628371E+05 -4.386099E-10
         8   7 -1.944151E+06  7.984074E+03 -6.294907E+04  2.680319E+04  4.784071E+04  2.071633E+00
         8   8 -1.918683E+06 -9.060844E+03 -1.092065E+05 -3.813434E+04  1.053387E+05 -6.489541E+00
         8   9 -1.944334E+06 -2.004476E+05 -2.365591E+05 -1.030680E+05  1.628371E+05 -2.711407E+01
         8  10 -1.944154E+06  7.983457E+03 -6.295338E+04 -2.680319E+04 -2.334421E-10 -1.096984E-10
         8  11 -1.918695E+06 -9.063834E+03 -1.092274E+05  3.813434E+04  1.788110E-09 -7.655457E-10
         8  12 -1.944363E+06 -2.004547E+05 -2.366091E+05  1.030680E+05  1.059025E-09 -3.430448E-10
         8  13 -1.944155E+06  7.982103E+03 -6.295358E+04  5.593385E-09  3.360175E-11 -6.050040E-10
         8  14 -1.918696E+06 -9.066575E+03 -1.092278E+05  4.366271E-11 -4.523875E-10 -4.316558E-10
         8  15 -1.944374E+06 -2.004748E+05 -2.366119E+05 -1.084539E-10 -1.551328E-09 -1.176297E-10
         8  16 -1.944154E+06  7.983457E+03 -6.295338E+04  2.680319E+04 -5.683009E-10 -1.185521E-09
         8  17 -1.918695E+06 -9.063834E+03 -1.092274E+05 -3.813434E+04  1.154573E-10 -9.643412E-11
         8  18 -1.944363E+06 -2.004547E+05 -2.366091E+05 -1.030680E+05  7.959486E-11  9.649297E-11
         8  19 -1.944151E+06  7.984074E+03 -6.294907E+04 -2.680319E+04 -4.784071E+04  2.071633E+00
         8  20 -1.918683E+06 -9.060844E+03 -1.092065E+05  3.813434E+04 -1.053387E+05 -6.489541E+00
         8  21 -1.944334E+06 -2.004476E+05 -2.365591E+05  1.030680E+05 -1.628371E+05 -2.711407E+01
         8  22 -1.944152E+06  7.982720E+03 -6.294926E+04  3.470515E-09 -4.784071E+04 -1.424126E-09
         8  23 -1.918684E+06 -9.063585E+03 -1.092069E+05 -8.492267E-09 -1.053387E+05 -6.025806E-11
         8  24 -1.944346E+06 -2.004676E+05 -2.365619E+05  4.159957E-09 -1.628371E+05  2.027790E-10
         8  25 -1.944151E+06  7.984074E+03 -6.294907E+04  2.680319E+04 -4.784071E+04 -2.071633E+00
         8  26 -1.918683E+06 -9.060844E+03 -1.092065E+05 -3.813434E+04 -1.053387E+05  6.489541E+00
         8  27 -1.944334E+06 -2.004476E+05 -2.365591E+05 -1.030680E+05 -1.628371E+05  2.711407E+01
         9   1  1.610868E+06  5.059070E+06  1.586165E+06 -1.018429E+06  7.098126E+04  4.518426E+05
         9   2  1.149695E+06  3.936830E+06  1.069115E+06 -8.077153E+05  2.205032E+05  1.958694E+05
         9   3  8.616434E+05  2.894533E+06  7.615921E+05 -8.936861E+05  2.189153E+05 -5.968707E+04
         9   4  1.852996E+05 -7.076266E+05  2.110719E+05 -9.033406E+05  7.166308E+04  1.475169E+05
         9   5  2.419280E+04 -7.280538E+05  9.862033E+04 -7.552270E+05  2.209206E+05  9.655025E+04
         9   6  1.532686E+03 -7.045247E+05  5.445698E+04 -9.038037E+05  2.186030E+05  4.552373E+04
         9   7 -1.242574E+06 -6.443740E+06 -1.166008E+06 -7.892853E+05  7.223765E+04 -1.540168E+05
         9   8 -1.102681E+06 -5.372382E+06 -8.730329E+05 -7.031124E+05  2.213234E+05 -2.040530E+03
         9   9 -8.593538E+05 -4.291178E+06 -6.532654E+05 -9.138415E+05  2.182861E+05  1.501391E+05
         9  10  1.610808E+06  5.058851E+06  1.585775E+06 -1.018455E+06 -8.301911E-11  1.443564E-09
         9  11  1.149633E+06  3.936776E+06  1.068952E+06 -8.077501E+05  9.722895E-10 -2.129628E-09
         9  12  8.615910E+05  2.894516E+06  7.614955E+05 -8.936756E+05  2.647147E-10 -4.843150E-09
         9  13  1.852882E+05 -7.076514E+05  2.110212E+05 -9.033491E+05  2.629049E-09 -3.537189E-11
         9  14  2.413787E+04 -7.280770E+05  9.851098E+04 -7.552442E+05 -1.527202E-09 -2.305520E-12
         9  15  1.480811E+03 -7.045398E+05  5.436324E+04 -9.038117E+05 -1.892692E-09  3.894478E-11
         9  16 -1.242586E+06 -6.443767E+06 -1.166063E+06 -7.892763E+05  1.562470E-09 -1.512281E-09
         9  17 -1.102734E+06 -5.372395E+06 -8.731249E+05 -7.031121E+05  2.208188E-09  1.908552E-09
         9  18 -8.594111E+05 -4.291215E+06 -6.533978E+05 -9.138680E+05 -7.988089E-10  4.691165E-09
         9  19  1.610868E+06  5.059070E+06  1.586165E+06 -1.018429E+06 -7.098126E+04 -4.518426E+05
         9  20  1.149695E+06  3.936830E+06  1.069115E+06 -8.077153E+05 -2.205032E+05 -1.958694E+05
         9  21  8.616434E+05  2.894533E+06  7.615921E+05 -8.936861E+05 -2.189153E+05  5.968707E+04
         9  22  1.852996E+05 -7.076266E+05  2.110719E+05 -9.033406E+05 -7.166308E+04 -1.475169E+05
         9  23  2.419280E+04 -7.280538E+05  9.862033E+04 -7.552270E+05 -2.209206E+05 -9.655025E+04
         9  24  1.532686E+03 -7.045247E+05  5.445698E+04 -9.038037E+05 -2.186030E+05 -4.552373E+04
         9  25 -1.242574E+06 -6.443740E+06 -1.166008E+06 -7.892853E+05 -7.223765E+04  1.540168E+05
         9  26 -1.102681E+06 -5.372382E+06 -8.730329E+05 -7.031124E+05 -2.213234E+05  2.040530E+03
         9  27 -8.593538E+05 -4.291178E+06 -6.532654E+05 -9.138415E+05 -2.182861E+05 -1.501391E+05
        10   1  6.922290E+05  2.131540E+06  5.995510E+05 -9.157528E+05  1.736175E+05 -3.726231E+04
        10   2  4.259955E+05  1.048403E+06  3.590220E+05 -7.587358E+05  1.148147E+05 -5.451725E+04
        10   3  1.677592E+05 -3.116547E+04  1.311404E+05 -9.072239E+05  5.035456E+04 -7.186383E+04
        10   4  1.203378E+04 -7.130582E+05  4.082977E+04 -9.056949E+05  1.733505E+05  3.814670E+04
        10   5  5.771592E+03 -7.130304E+05  1.901396E+04 -7.529361E+05  1.144535E+05  2.849820E+04
        10   6  6.267110E+03 -7.118475E+05  4.628459E+03 -9.057303E+05  4.988830E+04  1.872916E+04
        10   7 -6.686471E+05 -3.549904E+06 -5.182626E+05 -8.956706E+05  1.730852E+05  1.132182E+05
        10   8 -4.146331E+05 -2.471467E+06 -3.211126E+05 -7.471481E+05  1.140932E+05  1.112837E+05
        10   9 -1.552472E+05 -1.392063E+06 -1.218723E+05 -9.042376E+05  4.942213E+04  1.092253E+05
        10  10  6.921962E+05  2.131531E+06  5.994918E+05 -9.157476E+05 -1.413210E-09  2.040978E-09
        10  11  4.259805E+05  1.048396E+06  3.589917E+05 -7.587308E+05 -1.205533E-09  5.134622E-10
        10  12  1.677551E+05 -3.117168E+04  1.311260E+05 -9.072210E+05 -1.053998E-09 -1.388359E-09
        10  13  1.200112E+04 -7.130679E+05  4.077054E+04 -9.057002E+05 -1.641631E-09  4.585636E-11
        10  14  5.757306E+03 -7.130348E+05  1.898780E+04 -7.529387E+05  2.864393E-10  4.658521E-11
        10  15  6.264342E+03 -7.118485E+05  4.623117E+03 -9.057311E+05 -9.812872E-10 -1.152629E-10
        10  16 -6.686828E+05 -3.549926E+06 -5.183432E+05 -8.956864E+05 -1.900223E-09 -2.070358E-09
        10  17 -4.146505E+05 -2.471484E+06 -3.211605E+05 -7.471584E+05  1.103255E-09 -5.064041E-10
        10  18 -1.552531E+05 -1.392076E+06 -1.218994E+05 -9.042419E+05 -1.875586E-09  1.259339E-09
        10  19  6.922290E+05  2.131540E+06  5.995510E+05 -9.157528E+05 -1.736175E+05  3.726231E+04
        10  20  4.259955E+05  1.048403E+06  3.590220E+05 -7.587358E+05 -1.148147E+05  5.451725E+04
        10  21  1.677592E+05 -3.116547E+04  1.311404E+05 -9.072239E+05 -5.035456E+04  7.186383E+04
        10  22  1.203378E+04 -7.130582E+05  4.082977E+04 -9.056949E+05 -1.733505E+05 -3.814670E+04
        10  23  5.771592E+03 -7.130304E+05  1.901396E+04 -7.529361E+05 -1.144535E+05 -2.849820E+04
        10  24  6.267110E+03 -7.118475E+05  4.628459E+03 -9.057303E+05 -4.988830E+04 -1.872916E+04
        10  25 -6.686471E+05 -3.549904E+06 -5.182626E+05 -8.956706E+05 -1.730852E+05 -1.132182E+05
        10  26 -4.146331E+05 -2.471467E+06 -3.211126E+05 -7.471481E+05 -1.140932E+05 -1.112837E+05
        10  27 -1.552472E+05 -1.392063E+06 -1.218723E+05 -9.042376E+05 -4.942213E+04 -1.092253E+05
        11   1 -9.691814E+03 -7.831486E+05 -2.351435E+04 -9.002264E+05  5.828409E+03 -8.371031E+04
        11   2 -2.780457E+05 -1.851697E+06 -2.682920E+05 -7.584024E+05 -3.833706E+04  1.051483E+04
        11   3 -5.857884E+05 -2.943514E+06 -5.850701E+05 -9.191350E+05 -1.844390E+04  1.047773E+05
        11   4  8.587077E+03 -7.140928E+05 -1.521838E+03 -9.050243E+05  5.296549E+03  1.790604E+04
        11   5  1.074598E+03 -7.098046E+05 -1.590396E+04 -7.538412E+05 -3.840793E+04  2.618992E+04
        11   6 -3.077074E+04 -7.148925E+05 -4.245819E+04 -9.051915E+05 -1.810492E+04  3.467667E+04
        11   7  2.687115E+04 -6.450108E+05  2.050906E+04 -9.098228E+05  4.763149E+03  1.195340E+05
        11   8  2.801073E+05  4.333096E+05  2.364045E+05 -7.492693E+05 -3.847849E+04  4.189354E+04
        11   9  5.238842E+05  1.518289E+06  4.998119E+05 -8.911893E+05 -1.776986E+04 -3.567605E+04
        11  10 -9.693734E+03 -7.831561E+05 -2.352759E+04 -9.002260E+05 -1.590375E-09  2.425192E-09
        11  11 -2.780473E+05 -1.851697E+06 -2.682949E+05 -7.584020E+05 -1.716143E-09  3.344502E-10
        11  12 -5.857917E+05 -2.943526E+06 -5.850914E+05 -9.191334E+05 -8.462264E-10 -1.227384E-09
        11  13  8.586961E+03 -7.140932E+05 -1.522494E+03 -9.050244E+05 -1.733156E-09 -2.696020E-12
        11  14  1.072832E+03 -7.098058E+05 -1.590802E+04 -7.538404E+05  9.232078E-10 -1.169210E-10
        11  15 -3.077141E+04 -7.148939E+05 -4.246107E+04 -9.051910E+05 -9.164748E-10 -3.831881E-11
        11  16  2.686728E+04 -6.450262E+05  2.048214E+04 -9.098233E+05 -1.596587E-09 -2.493014E-09
        11  17  2.801052E+05  4.333073E+05  2.363985E+05 -7.492680E+05  1.595609E-09 -4.359387E-10
        11  18  5.238836E+05  1.518288E+06  4.998089E+05 -8.911898E+05  3.074807E-10  1.182557E-09
        11  19 -9.691814E+03 -7.831486E+05 -2.351435E+04 -9.002264E+05 -5.828409E+03  8.371031E+04
        11  20 -2.780457E+05 -1.851697E+06 -2.682920E+05 -7.584024E+05  3.833706E+04 -1.051483E+04
        11  21 -5.857884E+05 -2.943514E+06 -5.850701E+05 -9.191350E+05  1.844390E+04 -1.047773E+05
        11  22  8.587077E+03 -7.140928E+05 -1.521838E+03 -9.050243E+05 -5.296549E+03 -1.790604E+04
        11  23  1.074598E+03 -7.098046E+05 -1.590396E+04 -7.538412E+05  3.840793E+04 -2.618992E+04
        11  24 -3.077074E+04 -7.148925E+05 -4.245819E+04 -9.051915E+05  1.810492E+04 -3.467667E+04
        11  25  2.687115E+04 -6.450108E+05  2.050906E+04 -9.098228E+05 -4.763149E+03 -1.195340E+05
        11  26  2.801073E+05  4.333096E+05  2.364045E+05 -7.492693E+05  3.847849E+04 -4.189354E+04
        11  27  5.238842E+05  1.518289E+06  4.998119E+05 -8.911893E+05  1.776986E+04  3.567605E+04
        12   1 -2.488553E+06 -6.144869E+05 -2.439206E+05 -9.709790E+05 -1.530881E+05 -5.741757E+04
        12   2 -2.464854E+06 -3.842205E+05 -1.039856E+05 -9.701509E+05 -9.608583E+04 -3.665222E+04
        12   3 -2.506512E+06 -3.287265E+05 -5.268881E+04 -9.328181E+05 -3.885984E+04 -1.647624E+04
        12   4 -2.540775E+06 -5.432172E+05 -2.400708E+05 -8.915348E+05 -1.532901E+05 -5.752169E+04
        12   5 -2.494932E+06 -3.627650E+05 -1.053252E+05 -9.446478E+05 -9.688684E+04 -3.695901E+04