
 stresses (elem, integ.pnt.,sxx,syy,szz,sxy,sxz,syz) for set ELALL and time  0.1000000E+01

         1   1  1.409293E+06  8.744002E+04  9.391842E+04  5.851546E+04  6.513652E+04  6.126067E+00
         1   2  1.402767E+06  2.795619E+04  4.766532E+04  2.968172E+04  4.076815E+04  1.944903E+00
         1   3  1.409345E+06  8.237974E+03  2.719408E+04  8.481671E+02  1.639949E+04  2.235600E-02
         1   4  1.409289E+06  8.743360E+04  9.391750E+04 -3.661309E-10  6.513652E+04 -4.614932E-12
         1   5  1.402766E+06  2.795454E+04  4.766508E+04  1.538612E-09  4.076815E+04 -6.717480E-12
         1   6  1.409345E+06  8.237972E+03  2.719408E+04 -6.300384E-11  1.639949E+04  2.759878E-11
         1   7  1.409293E+06  8.744002E+04  9.391842E+04 -5.851546E+04  6.513652E+04 -6.126067E+00
         1   8  1.402767E+06  2.795619E+04  4.766532E+04 -2.968172E+04  4.076815E+04 -1.944903E+00
         1   9  1.409345E+06  8.237974E+03  2.719408E+04 -8.481671E+02  1.639949E+04 -2.235600E-02
         1  10  1.409288E+06  8.743888E+04  9.391047E+04  5.851546E+04  1.117042E-10 -9.358098E-12
         1  11  1.402765E+06  2.795574E+04  4.766220E+04  2.968172E+04  4.996498E-10  4.397174E-12
         1  12  1.409344E+06  8.237902E+03  2.719358E+04  8.481671E+02  6.311177E-10 -1.762423E-10
         1  13  1.409285E+06  8.743246E+04  9.390955E+04  1.768911E-10  2.862540E-10  5.393552E-12
         1  14  1.402764E+06  2.795409E+04  4.766196E+04  4.715555E-10  2.772364E-10  2.300930E-11
         1  15  1.409344E+06  8.237900E+03  2.719358E+04  8.430936E-11  3.567179E-10  3.116383E-11
         1  16  1.409288E+06  8.743888E+04  9.391047E+04 -5.851546E+04 -1.694938E-10 -1.906709E-11
         1  17  1.402765E+06  2.795574E+04  4.766220E+04 -2.968172E+04 -3.044538E-10  7.307150E-11
         1  18  1.409344E+06  8.237902E+03  2.719358E+04 -8.481671E+02 -5.942492E-11  2.231388E-10
         1  19  1.409293E+06  8.744002E+04  9.391842E+04  5.851546E+04 -6.513652E+04 -6.126067E+00
         1  20  1.402767E+06  2.795619E+04  4.766532E+04  2.968172E+04 -4.076815E+04 -1.944903E+00
         1  21  1.409345E+06  8.237974E+03  2.719408E+04  8.481671E+02 -1.639949E+04 -2.235600E-02
         1  22  1.409289E+06  8.743360E+04  9.391750E+04 -8.628250E-10 -6.513652E+04  2.409161E-11
         1  23  1.402766E+06  2.795454E+04  4.766508E+04 -5.933972E-10 -4.076815E+04  6.051388E-11
         1  24  1.409345E+06  8.237972E+03  2.719408E+04 -1.468924E-09 -1.639949E+04  3.726072E-11
         1  25  1.409293E+06  8.744002E+04  9.391842E+04 -5.851546E+04 -6.513652E+04  6.126067E+00
         1  26  1.402767E+06  2.795619E+04  4.766532E+04 -2.968172E+04 -4.076815E+04  1.944903E+00
         1  27  1.409345E+06  8.237974E+03  2.719408E+04 -8.481671E+02 -1.639949E+04  2.235600E-02
         2   1  1.406851E+06  6.372112E+03  2.148357E+04  3.753562E+03  1.272584E+04  7.677394E-02
         2   2  1.405908E+06  1.780686E+03  1.473010E+04  1.748191E+03  5.370323E+03  1.508945E-02
         2   3  1.406856E+06  9.357145E+02  1.369414E+04 -2.571807E+02 -1.985177E+03  8.205802E-04
         2   4  1.406851E+06  6.372086E+03  2.148357E+04  8.760279E-10  1.272584E+04  6.852611E-11
         2   5  1.405908E+06  1.780680E+03  1.473010E+04  1.009284E-10  5.370323E+03  1.226334E-10
         2   6  1.406856E+06  9.357144E+02  1.369414E+04 -1.078265E-09 -1.985177E+03  2.601522E-10
         2   7  1.406851E+06  6.372112E+03  2.148357E+04 -3.753562E+03  1.272584E+04 -7.677394E-02
         2   8  1.405908E+06  1.780686E+03  1.473010E+04 -1.748191E+03  5.370323E+03 -1.508945E-02
         2   9  1.406856E+06  9.357145E+02  1.369414E+04  2.571807E+02 -1.985177E+03 -8.205797E-04
         2  10  1.406851E+06  6.372069E+03  2.148327E+04  3.753562E+03  6.743020E-10 -1.171957E-10
         2  11  1.405908E+06  1.780678E+03  1.473005E+04  1.748191E+03  3.202465E-10 -3.937091E-11
         2  12  1.406856E+06  9.357134E+02  1.369413E+04 -2.571807E+02  4.484251E-11 -7.679360E-12
         2  13  1.406851E+06  6.372042E+03  2.148326E+04  9.181439E-10  2.377284E-10  3.569986E-11
         2  14  1.405908E+06  1.780673E+03  1.473005E+04  1.009279E-10  2.070671E-10  6.177674E-11
         2  15  1.406856E+06  9.357133E+02  1.369413E+04 -2.448485E-10  2.967309E-11  6.598680E-11
         2  16  1.406851E+06  6.372069E+03  2.148327E+04 -3.753562E+03 -9.338590E-11  2.061639E-10
         2  17  1.405908E+06  1.780678E+03  1.473005E+04 -1.748191E+03 -3.597882E-10  1.853691E-10
         2  18  1.406856E+06  9.357134E+02  1.369413E+04  2.571807E+02 -2.405282E-10  9.484866E-11
         2  19  1.406851E+06  6.372112E+03  2.148357E+04  3.753562E+03 -1.272584E+04 -7.677394E-02
         2  20  1.405908E+06  1.780686E+03  1.473010E+04  1.748191E+03 -5.370323E+03 -1.508945E-02
         2  21  1.406856E+06  9.357145E+02  1.369414E+04 -2.571807E+02  1.985177E+03 -8.205802E-04
         2  22  1.406851E+06  6.372086E+03  2.148357E+04 -6.855913E-10 -1.272584E+04  1.486736E-11
         2  23  1.405908E+06  1.780680E+03  1.473010E+04 -1.431967E-10 -5.370323E+03 -7.707122E-12
         2  24  1.406856E+06  9.357144E+02  1.369414E+04 -1.090919E-09  1.985177E+03 -1.105933E-10
         2  25  1.406851E+06  6.372112E+03  2.148357E+04 -3.753562E+03 -1.272584E+04  7.677394E-02
         2  26  1.405908E+06  1.780686E+03  1.473010E+04 -1.748191E+03 -5.370323E+03  1.508945E-02
         2  27  1.406856E+06  9.357145E+02  1.369414E+04  2.571807E+02  1.985177E+03  8.205800E-04
         3   1  1.407081E+06  1.012062E+03  1.483336E+04  6.460616E+02 -4.416128E+03 -4.585627E-03
         3   2  1.405624E+06  3.191462E+03  2.101353E+04 -2.870394E+03 -1.492578E+04  6.885937E-02
         3   3  1.407070E+06  1.152641E+04  3.556383E+04 -6.386788E+03 -2.543537E+04  2.610986E-01
         3   4  1.407081E+06  1.012061E+03  1.483336E+04 -6.741731E-10 -4.416128E+03  2.099712E-10
         3   5  1.405624E+06  3.191447E+03  2.101352E+04  1.892205E-10 -1.492578E+04  1.073917E-11
         3   6  1.407070E+06  1.152633E+04  3.556381E+04  9.287126E-11 -2.543537E+04  1.268998E-10
         3   7  1.407081E+06  1.012062E+03  1.483336E+04 -6.460616E+02 -4.416128E+03  4.585628E-03
         3   8  1.405624E+06  3.191462E+03  2.101353E+04  2.870394E+03 -1.492578E+04 -6.885937E-02
         3   9  1.407070E+06  1.152641E+04  3.556383E+04  6.386788E+03 -2.543537E+04 -2.610986E-01
         3  10  1.407081E+06  1.012057E+03  1.483332E+04  6.460616E+02 -4.062686E-11  1.162123E-11
         3  11  1.405623E+06  3.191402E+03  2.101311E+04 -2.870394E+03  2.747086E-10  4.474968E-11
         3  12  1.407069E+06  1.152623E+04  3.556261E+04 -6.386788E+03 -4.462456E-11  8.243913E-11
         3  13  1.407081E+06  1.012056E+03  1.483332E+04 -7.641977E-11 -4.847745E-11  8.391626E-11
         3  14  1.405623E+06  3.191387E+03  2.101311E+04  9.763451E-10  1.684688E-11  9.390421E-11
         3  15  1.407069E+06  1.152616E+04  3.556260E+04  4.885141E-10  1.680978E-11  3.002845E-11
         3  16  1.407081E+06  1.012057E+03  1.483332E+04 -6.460616E+02 -2.499163E-10  1.457302E-10
         3  17  1.405623E+06  3.191402E+03  2.101311E+04  2.870394E+03 -3.312025E-11  1.595208E-10
         3  18  1.407069E+06  1.152623E+04  3.556261E+04  6.386788E+03 -3.402076E-10  1.752725E-11
         3  19  1.407081E+06  1.012062E+03  1.483336E+04  6.460616E+02  4.416128E+03  4.585627E-03
         3  20  1.405624E+06  3.191462E+03  2.101353E+04 -2.870394E+03  1.492578E+04 -6.885937E-02
         3  21  1.407070E+06  1.152641E+04  3.556383E+04 -6.386788E+03  2.543537E+04 -2.610986E-01
         3  22  1.407081E+06  1.012061E+03  1.483336E+04 -1.166633E-09  4.416128E+03 -6.664599E-11
         3  23  1.405624E+06  3.191447E+03  2.101352E+04  5.469858E-10  1.492578E+04  1.679745E-10
         3  24  1.407070E+06  1.152633E+04  3.556381E+04  3.805480E-11  2.543537E+04 -6.701025E-11
         3  25  1.407081E+06  1.012062E+03  1.483336E+04 -6.460616E+02  4.416128E+03 -4.585627E-03
         3  26  1.405624E+06  3.191462E+03  2.101353E+04  2.870394E+03  1.492578E+04  6.885937E-02
         3  27  1.407070E+06  1.152641E+04  3.556383E+04  6.386788E+03  2.543537E+04  2.610986E-01
         4   1  1.411639E+06  1.485790E+04  4.662943E+04 -1.274788E+03 -3.156705E+04  6.467752E-02
         4   2  1.399868E+06  5.025114E+04  8.455945E+04 -5.308182E+04 -7.480967E+04  6.382562E+00
         4   3  1.411550E+06  1.570073E+05  1.684421E+05 -1.048916E+05 -1.180532E+05  1.990251E+01
         4   4  1.411639E+06  1.485790E+04  4.662943E+04 -7.954782E-10 -3.156705E+04  1.970404E-10
         4   5  1.399865E+06  5.024586E+04  8.455870E+04 -1.471573E-10 -7.480967E+04  1.135171E-10
         4   6  1.411538E+06  1.569866E+05  1.684392E+05 -1.386765E-10 -1.180532E+05  5.434694E-11
         4   7  1.411639E+06  1.485790E+04  4.662943E+04  1.274788E+03 -3.156705E+04 -6.467752E-02
         4   8  1.399868E+06  5.025114E+04  8.455945E+04  5.308182E+04 -7.480967E+04 -6.382562E+00
         4   9  1.411550E+06  1.570073E+05  1.684421E+05  1.048916E+05 -1.180532E+05 -1.990251E+01
         4  10  1.411638E+06  1.485763E+04  4.662756E+04 -1.274788E+03  6.462215E-11  3.145606E-11
         4  11  1.399862E+06  5.024964E+04  8.454896E+04 -5.308182E+04  5.644710E-10  2.351771E-11
         4  12  1.411535E+06  1.570035E+05  1.684160E+05 -1.048916E+05  4.513223E-10  1.015356E-11
         4  13  1.411638E+06  1.485763E+04  4.662756E+04  2.611227E-10  2.808679E-10  2.650407E-11
         4  14  1.399859E+06  5.024436E+04  8.454820E+04  5.894795E-10 -1.967093E-10  6.831316E-11
         4  15  1.411523E+06  1.569829E+05  1.684130E+05  4.548287E-10  6.494950E-11  2.607452E-11
         4  16  1.411638E+06  1.485763E+04  4.662756E+04  1.274788E+03  2.247062E-10  1.076021E-11
         4  17  1.399862E+06  5.024964E+04  8.454896E+04  5.308182E+04 -5.441600E-10  6.836926E-11
         4  18  1.411535E+06  1.570035E+05  1.684160E+05  1.048916E+05 -4.553728E-10  2.700647E-11
         4  19  1.411639E+06  1.485790E+04  4.662943E+04 -1.274788E+03  3.156705E+04 -6.467752E-02
         4  20  1.399868E+06  5.025114E+04  8.455945E+04 -5.308182E+04  7.480967E+04 -6.382562E+00
         4  21  1.411550E+06  1.570073E+05  1.684421E+05 -1.048916E+05  1.180532E+05 -1.990251E+01
         4  22  1.411639E+06  1.485790E+04  4.662943E+04 -5.806823E-10  3.156705E+04 -1.406011E-10
         4  23  1.399865E+06  5.024586E+04  8.455870E+04 -4.165463E-10  7.480967E+04  1.691374E-11
         4  24  1.411538E+06  1.569866E+05  1.684392E+05 -5.807888E-10  1.180532E+05 -3.612459E-12
         4  25  1.411639E+06  1.485790E+04  4.662943E+04  1.274788E+03  3.156705E+04  6.467752E-02
         4  26  1.399868E+06  5.025114E+04  8.455945E+04  5.308182E+04  7.480967E+04  6.382562E+00
         4  27  1.411550E+06  1.570073E+05  1.684421E+05  1.048916E+05  1.180532E+05  1.990251E+01
         5   1 -5.363680E+05 -1.330629E+06 -5.241841E+05  5.073028E+05 -1.876198E+04 -2.155298E+05
         5   2 -3.578606E+05 -9.732970E+05 -3.171744E+05  4.396352E+05 -5.849052E+04 -1.034214E+05
         5   3 -2.465568E+05 -6.471954E+05 -2.000353E+05  4.299127E+05 -6.100454E+04  8.763976E+03
         5   4 -1.174889E+05  3.651812E+05 -1.261279E+05  4.298878E+05 -1.863508E+04 -8.961598E+04
         5   5 -3.740408E+04  3.739958E+05 -6.233574E+04  4.008643E+05 -5.843065E+04 -5.767656E+04
         5   6 -1.050278E+04  3.654647E+05 -3.261751E+04  4.298022E+05 -6.103491E+04 -2.573070E+04
         5   7  3.012168E+05  2.063690E+06  2.717946E+05  3.522584E+05 -1.853992E+04  3.664051E+04
         5   8  2.829535E+05  1.723050E+06  1.924313E+05  3.620062E+05 -5.837659E+04 -1.183469E+04
         5   9  2.254989E+05  1.379141E+06  1.347743E+05  4.296909E+05 -6.106523E+04 -6.027974E+04
         5  10 -5.363809E+05 -1.330679E+06 -5.242722E+05  5.072995E+05 -6.644867E-11  3.395417E-10
         5  11 -3.578672E+05 -9.733095E+05 -3.172009E+05  4.396303E+05  6.042211E-10  3.547287E-10
         5  12 -2.465608E+05 -6.471965E+05 -2.000424E+05  4.299132E+05  1.904009E-10  4.145708E-10
         5  13 -1.174915E+05  3.651725E+05 -1.261436E+05  4.298865E+05  3.147991E-10  8.523710E-12
         5  14 -3.740863E+04  3.739913E+05 -6.234839E+04  4.008616E+05  4.827720E-10 -2.292389E-11
         5  15 -1.050695E+04  3.654630E+05 -3.262575E+04  4.298009E+05 -1.437225E-11 -2.510231E-11
         5  16  3.012161E+05  2.063688E+06  2.717914E+05  3.522590E+05 -1.989207E-10 -3.284328E-10
         5  17  2.829498E+05  1.723049E+06  1.924247E+05  3.620056E+05  1.286127E-10 -3.456864E-10
         5  18  2.254939E+05  1.379137E+06  1.347604E+05  4.296879E+05  5.507846E-10 -4.214426E-10
         5  19 -5.363680E+05 -1.330629E+06 -5.241841E+05  5.073028E+05  1.876198E+04  2.155298E+05
         5  20 -3.578606E+05 -9.732970E+05 -3.171744E+05  4.396352E+05  5.849052E+04  1.034214E+05
         5  21 -2.465568E+05 -6.471954E+05 -2.000353E+05  4.299127E+05  6.100454E+04 -8.763976E+03
         5  22 -1.174889E+05  3.651812E+05 -1.261279E+05  4.298878E+05  1.863508E+04  8.961598E+04
         5  23 -3.740408E+04  3.739958E+05 -6.233574E+04  4.008643E+05  5.843065E+04  5.767656E+04
         5  24 -1.050278E+04  3.654647E+05 -3.261751E+04  4.298022E+05  6.103491E+04  2.573070E+04
         5  25  3.012168E+05  2.063690E+06  2.717946E+05  3.522584E+05  1.853992E+04 -3.664051E+04
         5  26  2.829535E+05  1.723050E+06  1.924313E+05  3.620062E+05  5.837659E+04  1.183469E+04
         5  27  2.254989E+05  1.379141E+06  1.347743E+05  4.296909E+05  6.106523E+04  6.027974E+04
         6   1 -1.929978E+05 -4.278377E+05 -1.521634E+05  4.342727E+05 -5.015272E+04  1.339936E+04
         6   2 -1.055752E+05 -8.522879E+04 -7.760372E+04  4.023536E+05 -3.277157E+04  2.333699E+04
         6   3 -2.214094E+04  2.551531E+05 -1.053775E+04  4.309308E+05 -1.309590E+04  3.327366E+04
         6   4 -7.881529E+03  3.690633E+05 -2.347492E+04  4.303668E+05 -5.018962E+04 -2.163910E+04
         6   5 -1.054101E+03  3.698520E+05 -9.977637E+03  4.001139E+05 -3.281984E+04 -1.665753E+04
         6   6  2.653770E+03  3.691646E+05 -5.264094E+02  4.303553E+05 -1.315647E+04 -1.168210E+04
         6   7  1.772034E+05  1.166597E+06  1.052009E+05  4.264553E+05 -5.022605E+04 -5.672095E+04
         6   8  1.034582E+05  8.251444E+05  5.765059E+04  3.978723E+05 -3.286779E+04 -5.668018E+04
         6   9  2.744918E+04  4.831944E+05  9.492869E+03  4.297796E+05 -1.321694E+04 -5.664559E+04
         6  10 -1.930006E+05 -4.278386E+05 -1.521685E+05  4.342732E+05  8.012759E-11 -4.609736E-10
         6  11 -1.055765E+05 -8.522967E+04 -7.760677E+04  4.023543E+05 -7.426017E-10 -2.007875E-10
         6  12 -2.214142E+04  2.551518E+05 -1.054015E+04  4.309312E+05  2.051231E-10  2.241720E-10
         6  13 -7.884359E+03  3.690621E+05 -2.348053E+04  4.303659E+05 -2.504117E-10  8.174585E-12
         6  14 -1.055331E+03  3.698514E+05 -9.980181E+03  4.001134E+05 -1.231469E-10 -5.898223E-11
         6  15  2.653547E+03  3.691644E+05 -5.269906E+02  4.303551E+05  2.021459E-11  3.198383E-11
         6  16  1.771998E+05  1.166593E+06  1.051901E+05  4.264530E+05  3.504571E-10  5.397432E-10
         6  17  1.034561E+05  8.251407E+05  5.764253E+04  3.978708E+05 -2.550344E-10  1.809041E-10
         6  18  2.744813E+04  4.831909E+05  9.486518E+03  4.297790E+05  3.336422E-10 -2.585374E-10
         6  19 -1.929978E+05 -4.278377E+05 -1.521634E+05  4.342727E+05  5.015272E+04 -1.339936E+04
         6  20 -1.055752E+05 -8.522879E+04 -7.760372E+04  4.023536E+05  3.277157E+04 -2.333699E+04
         6  21 -2.214094E+04  2.551531E+05 -1.053775E+04  4.309308E+05  1.309590E+04 -3.327366E+04
         6  22 -7.881529E+03  3.690633E+05 -2.347492E+04  4.303668E+05  5.018962E+04  2.163910E+04
         6  23 -1.054101E+03  3.698520E+05 -9.977637E+03  4.001139E+05  3.281984E+04  1.665753E+04
         6  24  2.653770E+03  3.691646E+05 -5.264094E+02  4.303553E+05  1.315647E+04  1.168210E+04
         6  25  1.772034E+05  1.166597E+06  1.052009E+05  4.264553E+05  5.022605E+04  5.672095E+04
         6  26  1.034582E+05  8.251444E+05  5.765059E+04  3.978723E+05  3.286779E+04  5.668018E+04
         6  27  2.744918E+04  4.831944E+05  9.492869E+03  4.297796E+05  1.321694E+04  5.664559E+04
         7   1  2.870633E+04  4.713230E+05  2.932373E+04  4.302924E+05 -1.590305E+02  3.292720E+04
         7   2  1.174367E+05  8.073910E+05  1.081591E+05  4.112706E+05  1.148281E+04 -1.347053E+04
         7   3  2.272387E+05  1.154812E+06  2.224174E+05  4.517288E+05  5.134540E+03 -5.988732E+04
         7   4  3.453945E+03  3.704962E+05  3.841091E+03  4.301316E+05 -2.195697E+02 -1.181067E+04
         7   5  1.091458E+04  3.681878E+05  1.460235E+04  4.003777E+05  1.147625E+04 -1.931566E+04
         7   6  3.271622E+04  3.703913E+05  3.380471E+04  4.301019E+05  5.177628E+03 -2.681457E+04
         7   7 -2.179814E+04  2.696830E+05 -2.163481E+04  4.299709E+05 -2.800924E+02 -5.654128E+04
         7   8 -9.561960E+04 -7.083360E+04 -7.896528E+04  3.894924E+05  1.146988E+04 -2.515670E+04
         7   9 -1.618488E+05 -4.134636E+05 -1.548474E+05  4.085020E+05  5.218454E+03  6.216631E+03
         7  10  2.870604E+04  4.713219E+05  2.932170E+04  4.302924E+05  1.205071E-10  6.458678E-10
         7  11  1.174365E+05  8.073908E+05  1.081585E+05  4.112708E+05  2.646414E-10  6.288001E-11
         7  12  2.272377E+05  1.154808E+06  2.224106E+05  4.517291E+05  1.013505E-10 -6.600382E-10
         7  13  3.453907E+03  3.704961E+05  3.840828E+03  4.301316E+05 -1.212086E-10 -2.519738E-11
         7  14  1.091433E+04  3.681874E+05  1.460140E+04  4.003778E+05  1.538397E-10 -3.379084E-11
         7  15  3.271600E+04  3.703906E+05  3.380331E+04  4.301020E+05 -3.347236E-10  1.455496E-11
         7  16 -2.179900E+04  2.696795E+05 -2.164082E+04  4.299709E+05  1.754152E-10 -6.805685E-10
         7  17 -9.561991E+04 -7.083431E+04 -7.896671E+04  3.894926E+05  5.258441E-10 -1.030945E-10
         7  18 -1.618488E+05 -4.134637E+05 -1.548475E+05  4.085020E+05  1.050428E-10  6.541949E-10
         7  19  2.870633E+04  4.713230E+05  2.932373E+04  4.302924E+05  1.590305E+02 -3.292720E+04
         7  20  1.174367E+05  8.073910E+05  1.081591E+05  4.112706E+05 -1.148281E+04  1.347053E+04
         7  21  2.272387E+05  1.154812E+06  2.224174E+05  4.517288E+05 -5.134540E+03  5.988732E+04
         7  22  3.453945E+03  3.704962E+05  3.841091E+03  4.301316E+05  2.195697E+02  1.181067E+04
         7  23  1.091458E+04  3.681878E+05  1.460235E+04  4.003777E+05 -1.147625E+04  1.931566E+04
         7  24  3.271622E+04  3.703913E+05  3.380471E+04  4.301019E+05 -5.177628E+03  2.681457E+04
         7  25 -2.179814E+04  2.696830E+05 -2.163481E+04  4.299709E+05  2.800924E+02  5.654128E+04
         7  26 -9.561960E+04 -7.083360E+04 -7.896528E+04  3.894924E+05 -1.146988E+04  2.515670E+04
         7  27 -1.618488E+05 -4.134636E+05 -1.548474E+05  4.085020E+05 -5.218454E+03 -6.216631E+03
         8   1  3.442541E+05  2.098093E+04 -1.136345E+05  2.729623E+05 -2.904348E+04 -1.203494E+04
         8   2  4.002142E+05  4.881234E+04 -8.436960E+04  3.079378E+05 -2.317709E+04  1.485931E+04
         8   3  4.716429E+05  6.977262E+04 -6.639509E+04  3.347307E+05 -9.140584E+03  3.086534E+04
         8   4  8.248067E+05  3.281754E+05  3.328045E+04  4.957882E+05  1.386245E+04  2.013282E+04
         8   5  8.094863E+05  3.200800E+05  1.681564E+04  5.066282E+05 -3.808485E+03  2.937565E+04
         8   6  8.147297E+05  3.102107E+05  9.471067E+03  5.092841E+05 -1.331485E+04  2.773419E+04
         8   7  1.305600E+06  6.354614E+05  1.801759E+05  7.187952E+05  5.681286E+04  5.232945E+04
         8   8  1.218945E+06  5.914307E+05  1.179890E+05  7.054631E+05  1.557707E+04  4.390369E+04
         8   9  1.157955E+06  5.507213E+05  8.533129E+04  6.839495E+05 -1.749218E+04  2.460075E+04
         8  10  3.442532E+05  2.098055E+04 -1.136364E+05  2.729620E+05  3.145324E-10  1.442938E-10
         8  11  4.002136E+05  4.881196E+04 -8.437102E+04  3.079380E+05 -3.177850E-10  1.075505E-10
         8  12  4.716426E+05  6.977157E+04 -6.639704E+04  3.347310E+05  9.578539E-10  1.940434E-11
         8  13  8.248064E+05  3.281749E+05  3.327933E+04  4.957880E+05  2.660744E-10 -1.386503E-11
         8  14  8.094861E+05  3.200791E+05  1.681399E+04  5.066283E+05 -7.389692E-10 -9.185941E-11
         8  15  8.147293E+05  3.102098E+05  9.469287E+03  5.092844E+05 -5.732297E-10 -1.344560E-10
         8  16  1.305596E+06  6.354576E+05  1.801647E+05  7.187928E+05 -1.298263E-10 -1.673408E-10
         8  17  1.218945E+06  5.914285E+05  1.179849E+05  7.054625E+05  3.366723E-10 -3.047172E-10
         8  18  1.157954E+06  5.507205E+05  8.532958E+04  6.839499E+05 -6.494436E-10 -2.490420E-10
         8  19  3.442541E+05  2.098093E+04 -1.136345E+05  2.729623E+05  2.904348E+04  1.203494E+04
         8  20  4.002142E+05  4.881234E+04 -8.436960E+04  3.079378E+05  2.317709E+04 -1.485931E+04
         8  21  4.716429E+05  6.977262E+04 -6.639509E+04  3.347307E+05  9.140584E+03 -3.086534E+04
         8  22  8.248067E+05  3.281754E+05  3.328045E+04  4.957882E+05 -1.386245E+04 -2.013282E+04
         8  23  8.094863E+05  3.200800E+05  1.681564E+04  5.066282E+05  3.808485E+03 -2.937565E+04
         8  24  8.147297E+05  3.102107E+05  9.471067E+03  5.092841E+05  1.331485E+04 -2.773419E+04
         8  25  1.305600E+06  6.354614E+05  1.801759E+05  7.187952E+05 -5.681286E+04 -5.232945E+04
         8  26  1.218945E+06  5.914307E+05  1.179890E+05  7.054631E+05 -1.557707E+04 -4.390369E+04
         8  27  1.157955E+06  5.507213E+05  8.533129E+04  6.839495E+05  1.749218E+04 -2.460075E+04
         9   1  5.065285E+05  9.556921E+04 -5.866656E+04  3.531896E+05 -8.819590E+03  2.867979E+04
         9   2  5.571629E+05  1.410875E+05 -4.614443E+04  3.846159E+05 -5.899575E+03  2.670306E+04
         9   3  6.214290E+05  1.735740E+05 -3.422150E+04  4.118483E+05 -1.997777E+03  2.341542E+04
         9   4  8.141259E+05  3.092661E+05  7.381420E+03  5.091083E+05 -1.316567E+04  2.542050E+04
         9   5  8.066305E+05  3.147972E+05  4.791897E+03  5.117248E+05 -1.308077E+04  2.132019E+04
         9   6  8.133742E+05  3.079084E+05  4.059164E+03  5.101440E+05 -1.201453E+04  1.590929E+04
         9   7  1.121843E+06  5.230259E+05  7.342769E+04  6.651203E+05 -1.751471E+04  2.215902E+04
         9   8  1.056173E+06  4.885458E+05  5.572635E+04  6.388935E+05 -2.026580E+04  1.593447E+04
         9   9  1.005360E+06  4.422633E+05  4.233777E+04  6.084733E+05 -2.203517E+04  8.400265E+03
         9  10  5.065282E+05  9.556830E+04 -5.866825E+04  3.531898E+05  1.394278E-10 -1.516172E-10
         9  11  5.571627E+05  1.410868E+05 -4.614583E+04  3.846160E+05 -1.108549E-10 -2.839909E-11
         9  12  6.214289E+05  1.735734E+05 -3.422254E+04  4.118483E+05 -5.290282E-10  1.145647E-10
         9  13  8.141256E+05  3.092654E+05  7.379879E+03  5.091086E+05 -1.032987E-09 -1.478348E-10
         9  14  8.066302E+05  3.147966E+05  4.790721E+03  5.117251E+05 -1.096472E-11  8.227889E-11
         9  15  8.133740E+05  3.079081E+05  4.058416E+03  5.101441E+05  2.935184E-11  3.320395E-10
         9  16  1.121842E+06  5.230253E+05  7.342619E+04  6.651206E+05 -2.224728E-10 -5.169562E-11
         9  17  1.056172E+06  4.885454E+05  5.572510E+04  6.388938E+05 -7.172733E-10  1.786859E-10
         9  18  1.005359E+06  4.422630E+05  4.233673E+04  6.084734E+05  7.132175E-11  5.511513E-10
         9  19  5.065285E+05  9.556921E+04 -5.866656E+04  3.531896E+05  8.819590E+03 -2.867979E+04
         9  20  5.571629E+05  1.410875E+05 -4.614443E+04  3.846159E+05  5.899575E+03 -2.670306E+04
         9  21  6.214290E+05  1.735740E+05 -3.422150E+04  4.118483E+05  1.997777E+03 -2.341542E+04
         9  22  8.141259E+05  3.092661E+05  7.381420E+03  5.091083E+05  1.316567E+04 -2.542050E+04
         9  23  8.066305E+05  3.147972E+05  4.791897E+03  5.117248E+05  1.308077E+04 -2.132019E+04
         9  24  8.133742E+05  3.079084E+05  4.059164E+03  5.101440E+05  1.201453E+04 -1.590929E+04
         9  25  1.121843E+06  5.230259E+05  7.342769E+04  6.651203E+05  1.751471E+04 -2.215902E+04
         9  26  1.056173E+06  4.885458E+05  5.572635E+04  6.388935E+05  2.026580E+04 -1.593447E+04
         9  27  1.005360E+06  4.422633E+05  4.233777E+04  6.084733E+05  2.203517E+04 -8.400265E+03
        10   1  6.569428E+05  1.987620E+05 -2.658351E+04  4.301565E+05 -4.974958E+02  2.024374E+04
        10   2  7.071179E+05  2.452752E+05 -1.380025E+04  4.611927E+05  9.699682E+02  1.404603E+04
        10   3  7.712914E+05  2.787991E+05  7.709383E+02  4.882499E+05  2.486558E+03  7.781577E+03
        10   4  8.133637E+05  3.078524E+05  4.194104E+03  5.101452E+05 -1.053172E+04  1.272521E+04
        10   5  8.064483E+05  3.145039E+05  5.487772E+03  5.120102E+05 -9.209079E+03  6.419619E+03
        10   6  8.135587E+05  3.081952E+05  8.694033E+03  5.098930E+05 -7.837086E+03  4.741456E+01
        10   7  9.698144E+05  4.169585E+05  3.497167E+04  5.901578E+05 -2.056929E+04  5.204176E+03
        10   8  9.057922E+05  3.837400E+05  2.477657E+04  5.628380E+05 -1.939040E+04 -1.208492E+03
        10   9  8.558294E+05  3.375933E+05  1.661807E+04  5.315385E+05 -1.816190E+04 -7.687618E+03
        10  10  6.569427E+05  1.987616E+05 -2.658428E+04  4.301565E+05  2.489478E-10  5.970914E-10
        10  11  7.071179E+05  2.452749E+05 -1.380062E+04  4.611927E+05  1.874194E-10  4.133475E-10
        10  12  7.712914E+05  2.787990E+05  7.708130E+02  4.882499E+05  8.631930E-10  2.651678E-10
        10  13  8.133635E+05  3.078521E+05  4.193591E+03  5.101454E+05 -1.733226E-10  3.346935E-10
        10  14  8.064482E+05  3.145038E+05  5.487536E+03  5.120102E+05  5.689992E-10  2.176574E-10
        10  15  8.135586E+05  3.081951E+05  8.693918E+03  5.098930E+05  1.950571E-10 -1.112184E-10
        10  16  9.698140E+05  4.169583E+05  3.497083E+04  5.901579E+05 -2.771443E-10  1.773079E-10
        10  17  9.057918E+05  3.837399E+05  2.477587E+04  5.628380E+05 -4.324871E-10 -2.547849E-11
        10  18  8.558291E+05  3.375932E+05  1.661734E+04  5.315384E+05 -4.212132E-10 -4.424140E-10
        10  19  6.569428E+05  1.987620E+05 -2.658351E+04  4.301565E+05  4.974958E+02 -2.024374E+04
        10  20  7.071179E+05  2.452752E+05 -1.380025E+04  4.611927E+05 -9.699682E+02 -1.404603E+04
        10  21  7.712914E+05  2.787991E+05  7.709383E+02  4.882499E+05 -2.486558E+03 -7.781577E+03
        10  22  8.133637E+05  3.078524E+05  4.194104E+03  5.101452E+05  1.053172E+04 -1.272521E+04
        10  23  8.064483E+05  3.145039E+05  5.487772E+03  5.120102E+05  9.209079E+03 -6.419619E+03
        10  24  8.135587E+05  3.081952E+05  8.694033E+03  5.098930E+05  7.837086E+03 -4.741456E+01
        10  25  9.698144E+05  4.169585E+05  3.497167E+04  5.901578E+05  2.056929E+04 -5.204176E+03
        10  26  9.057922E+05  3.837400E+05  2.477657E+04  5.628380E+05  1.939040E+04  1.208492E+03
        10  27  8.558294E+05  3.375933E+05  1.661807E+04  5.315385E+05  1.816190E+04  7.687618E+03
        11   1  8.067546E+05  3.047019E+05  1.068144E+04  5.068237E+05  3.221067E+03  3.943058E+03
        11   2  8.604165E+05  3.490161E+05  3.084318E+04  5.349612E+05 -2.899685E+03 -7.502619E+03
        11   3  9.318674E+05  3.851533E+05  6.026687E+04  5.575751E+05 -9.582336E+03 -1.820043E+04
        11   4  8.139397E+05  3.085081E+05  1.122429E+04  5.100544E+05 -7.092670E+03 -3.783588E+03
        11   5  8.072365E+05  3.163674E+05  1.945559E+04  5.101179E+05 -1.159369E+04 -1.401607E+04
        11   6  8.179697E+05  3.156989E+05  3.554707E+04  5.046558E+05 -1.665554E+04 -2.350003E+04
        11   7  8.211249E+05  3.123145E+05  1.176770E+04  5.132853E+05 -1.740632E+04 -1.151014E+04
        11   8  7.540607E+05  2.837204E+05  8.068529E+03  4.852773E+05 -2.028658E+04 -2.052881E+04
        11   9  7.040875E+05  2.462505E+05  1.082696E+04  4.517471E+05 -2.372699E+04 -2.879855E+04
        11  10  8.067545E+05  3.047018E+05  1.068139E+04  5.068237E+05 -1.320751E-10 -5.424917E-10
        11  11  8.604164E+05  3.490161E+05  3.084306E+04  5.349612E+05 -7.949779E-11  9.840757E-11
        11  12  9.318672E+05  3.851529E+05  6.026607E+04  5.575750E+05  2.471147E-10  3.858819E-10
        11  13  8.139396E+05  3.085081E+05  1.122416E+04  5.100544E+05  5.555355E-10 -5.479668E-11
        11  14  8.072363E+05  3.163671E+05  1.945497E+04  5.101177E+05  5.099746E-10  1.837612E-10
        11  15  8.179693E+05  3.156983E+05  3.554552E+04  5.046555E+05 -2.003510E-10  1.325055E-10
        11  16  8.211245E+05  3.123142E+05  1.176688E+04  5.132851E+05  4.167849E-10  4.808782E-10
        11  17  7.540602E+05  2.837199E+05  8.066966E+03  4.852769E+05 -2.641533E-10  2.681352E-10
        11  18  7.040866E+05  2.462494E+05  1.082434E+04  4.517466E+05 -4.418564E-10 -1.977441E-10
        11  19  8.067546E+05  3.047019E+05  1.068144E+04  5.068237E+05 -3.221067E+03 -3.943058E+03
        11  20  8.604165E+05  3.490161E+05  3.084318E+04  5.349612E+05  2.899685E+03  7.502619E+03
        11  21  9.318674E+05  3.851533E+05  6.026687E+04  5.575751E+05  9.582336E+03  1.820043E+04
        11  22  8.139397E+05  3.085081E+05  1.122429E+04  5.100544E+05  7.092670E+03  3.783588E+03
        11  23  8.072365E+05  3.163674E+05  1.945559E+04  5.101179E+05  1.159369E+04  1.401607E+04
        11  24  8.179697E+05  3.156989E+05  3.554707E+04  5.046558E+05  1.665554E+04  2.350003E+04
        11  25  8.211249E+05  3.123145E+05  1.176770E+04  5.132853E+05  1.740632E+04  1.151014E+04
        11  26  7.540607E+05  2.837204E+05  8.068529E+03  4.852773E+05  2.028658E+04  2.052881E+04
        11  27  7.040875E+05  2.462505E+05  1.082696E+04  4.517471E+05  2.372699E+04  2.879855E+04
        12   1  9.670897E+05  4.196145E+05  8.076177E+04  5.780151E+05 -1.301480E+04 -2.409136E+04
        12   2  1.074105E+06  4.339187E+05  1.397646E+05  5.693457E+05 -6.228941E+04 -6.110863E+04
        12   3  1.239113E+06  4.942858E+05  2.580449E+05  5.330859E+05 -1.163098E+05 -9.181342E+04
        12   4  8.221437E+05  3.197337E+05  4.734793E+04  5.053319E+05 -1.998478E+04 -2.931380E+04
        12   5  8.210507E+05  3.452694E+05  8.711369E+04  4.838000E+05 -5.558572E+04 -5.609574E+04