
 stresses (elem, integ.pnt.,sxx,syy,szz,sxy,sxz,syz) for set ELALL and time  0.1000000E+01

         1   1 -5.398915E+06 -6.550952E+05 -8.532467E+05 -7.551827E+04 -5.803886E+05  7.118465E+01
         1   2 -5.268157E+06  1.502500E+05 -3.641497E+05 -1.929848E+04 -3.815140E+05  1.195636E+01
         1   3 -5.397193E+06  2.263971E+04 -2.384439E+05  3.693210E+04 -1.826485E+05 -1.095652E+01
         1   4 -5.398921E+06 -6.551060E+05 -8.532483E+05 -5.130083E-08 -5.803886E+05 -8.284736E-11
         1   5 -5.268157E+06  1.502493E+05 -3.641498E+05 -1.228289E-07 -3.815140E+05 -1.086195E-09
         1   6 -5.397195E+06  2.263713E+04 -2.384443E+05  3.568701E-08 -1.826485E+05 -2.319589E-09
         1   7 -5.398915E+06 -6.550952E+05 -8.532467E+05  7.551827E+04 -5.803886E+05 -7.118465E+01
         1   8 -5.268157E+06  1.502500E+05 -3.641497E+05  1.929848E+04 -3.815140E+05 -1.195636E+01
         1   9 -5.397193E+06  2.263971E+04 -2.384439E+05 -3.693210E+04 -1.826485E+05  1.095652E+01
         1  10 -5.399280E+06 -6.551866E+05 -8.538852E+05 -7.551825E+04 -1.054580E-09  4.667606E-11
         1  11 -5.268314E+06  1.502105E+05 -3.644256E+05 -1.929848E+04 -1.027302E-09 -2.212491E-10
         1  12 -5.397229E+06  2.263066E+04 -2.385071E+05  3.693210E+04  1.433158E-09  2.172540E-10
         1  13 -5.399286E+06 -6.551974E+05 -8.538868E+05 -3.411107E-08  4.263173E-09 -1.345352E-10
         1  14 -5.268315E+06  1.502098E+05 -3.644257E+05 -1.963310E-08 -1.120587E-09 -2.687568E-10
         1  15 -5.397231E+06  2.262808E+04 -2.385075E+05 -1.374238E-08  3.370425E-10 -1.338515E-10
         1  16 -5.399280E+06 -6.551866E+05 -8.538852E+05  7.551825E+04 -2.171483E-09 -4.762123E-11
         1  17 -5.268314E+06  1.502105E+05 -3.644256E+05  1.929848E+04  1.573538E-09 -4.528998E-10
         1  18 -5.397229E+06  2.263066E+04 -2.385071E+05 -3.693210E+04  3.354973E-09  4.924613E-10
         1  19 -5.398915E+06 -6.550952E+05 -8.532467E+05 -7.551827E+04  5.803886E+05 -7.118465E+01
         1  20 -5.268157E+06  1.502500E+05 -3.641497E+05 -1.929848E+04  3.815140E+05 -1.195636E+01
         1  21 -5.397193E+06  2.263971E+04 -2.384439E+05  3.693210E+04  1.826485E+05  1.095652E+01
         1  22 -5.398921E+06 -6.551060E+05 -8.532483E+05 -1.690801E-08  5.803886E+05 -1.868835E-10
         1  23 -5.268157E+06  1.502493E+05 -3.641498E+05  6.636876E-08  3.815140E+05  6.913022E-11
         1  24 -5.397195E+06  2.263713E+04 -2.384443E+05  4.858528E-08  1.826485E+05  2.130596E-09
         1  25 -5.398915E+06 -6.550952E+05 -8.532467E+05  7.551827E+04  5.803886E+05  7.118465E+01
         1  26 -5.268157E+06  1.502500E+05 -3.641497E+05  1.929848E+04  3.815140E+05  1.195636E+01
         1  27 -5.397193E+06  2.263971E+04 -2.384439E+05 -3.693210E+04  1.826485E+05 -1.095652E+01
         2   1 -5.349148E+06 -9.806826E+04 -1.971924E+05 -1.077495E+04 -1.435048E+05  2.511303E+00
         2   2 -5.328227E+06  2.254056E+04 -9.420250E+04 -2.560787E+03 -9.418739E+04  3.917206E-01
         2   3 -5.348813E+06  3.301828E+03 -5.847850E+04  5.653410E+03 -4.486885E+04 -4.119838E-01
         2   4 -5.349149E+06 -9.806848E+04 -1.971925E+05 -3.279288E-08 -1.435048E+05 -2.200638E-09
         2   5 -5.328227E+06  2.254055E+04 -9.420250E+04  7.136668E-08 -9.418739E+04 -6.483227E-10
         2   6 -5.348813E+06  3.301767E+03 -5.847851E+04  1.003059E-07 -4.486885E+04 -1.138316E-09
         2   7 -5.349148E+06 -9.806826E+04 -1.971924E+05  1.077495E+04 -1.435048E+05 -2.511303E+00
         2   8 -5.328227E+06  2.254056E+04 -9.420250E+04  2.560787E+03 -9.418739E+04 -3.917206E-01
         2   9 -5.348813E+06  3.301828E+03 -5.847850E+04 -5.653410E+03 -4.486885E+04  4.119838E-01
         2  10 -5.349171E+06 -9.807385E+04 -1.972315E+05 -1.077495E+04 -7.729372E-10 -2.735333E-10
         2  11 -5.328236E+06  2.253816E+04 -9.421931E+04 -2.560787E+03 -2.461098E-09 -1.239578E-09
         2  12 -5.348816E+06  3.301282E+03 -5.848231E+04  5.653410E+03 -1.031844E-09 -4.380492E-10
         2  13 -5.349171E+06 -9.807407E+04 -1.972315E+05 -1.359614E-07  1.201616E-10 -1.892653E-10
         2  14 -5.328236E+06  2.253814E+04 -9.421931E+04  1.229551E-07  1.374982E-09 -7.561842E-10
         2  15 -5.348816E+06  3.301221E+03 -5.848232E+04  1.411394E-07 -4.679691E-09 -2.422320E-10
         2  16 -5.349171E+06 -9.807385E+04 -1.972315E+05  1.077495E+04  4.063499E-09 -1.885672E-09
         2  17 -5.328236E+06  2.253816E+04 -9.421931E+04  2.560787E+03  1.254814E-09 -9.203634E-10
         2  18 -5.348816E+06  3.301282E+03 -5.848231E+04 -5.653410E+03  5.581066E-10 -1.045798E-09
         2  19 -5.349148E+06 -9.806826E+04 -1.971924E+05 -1.077495E+04  1.435048E+05 -2.511303E+00
         2  20 -5.328227E+06  2.254056E+04 -9.420250E+04 -2.560787E+03  9.418739E+04 -3.917206E-01
         2  21 -5.348813E+06  3.301828E+03 -5.847850E+04  5.653410E+03  4.486885E+04  4.119838E-01
         2  22 -5.349149E+06 -9.806848E+04 -1.971925E+05  1.878277E-08  1.435048E+05  1.134585E-09
         2  23 -5.328227E+06  2.254055E+04 -9.420250E+04  5.417108E-08  9.418739E+04 -1.039357E-09
         2  24 -5.348813E+06  3.301767E+03 -5.847851E+04  4.658677E-08  4.486885E+04  9.807896E-10
         2  25 -5.349148E+06 -9.806826E+04 -1.971924E+05  1.077495E+04  1.435048E+05  2.511303E+00
         2  26 -5.328227E+06  2.254056E+04 -9.420250E+04  2.560787E+03  9.418739E+04  3.917206E-01
         2  27 -5.348813E+06  3.301828E+03 -5.847850E+04 -5.653410E+03  4.486885E+04 -4.119838E-01
         3   1 -5.341177E+06 -1.459753E+04 -4.681321E+04 -1.474059E+03 -3.539201E+04  8.473044E-02
         3   2 -5.337715E+06  3.374419E+03 -2.415445E+04 -3.004561E+02 -2.305587E+04  1.125073E-02
         3   3 -5.341110E+06  4.414671E+02 -1.480443E+04  8.731242E+02 -1.071978E+04 -1.520136E-02
         3   4 -5.341177E+06 -1.459753E+04 -4.681321E+04  4.744721E-08 -3.539201E+04  2.482098E-10
         3   5 -5.337715E+06  3.374419E+03 -2.415445E+04 -8.124330E-08 -2.305587E+04  2.750990E-09
         3   6 -5.341110E+06  4.414657E+02 -1.480443E+04 -2.506628E-08 -1.071978E+04 -4.697465E-10
         3   7 -5.341177E+06 -1.459753E+04 -4.681321E+04  1.474059E+03 -3.539201E+04 -8.473044E-02
         3   8 -5.337715E+06  3.374419E+03 -2.415445E+04  3.004561E+02 -2.305587E+04 -1.125073E-02
         3   9 -5.341110E+06  4.414671E+02 -1.480443E+04 -8.731242E+02 -1.071978E+04  1.520136E-02
         3  10 -5.341178E+06 -1.459787E+04 -4.681558E+04 -1.474059E+03 -3.530411E-09 -8.198678E-11
         3  11 -5.337716E+06  3.374275E+03 -2.415546E+04 -3.004561E+02 -5.791115E-10  2.356260E-10
         3  12 -5.341110E+06  4.414360E+02 -1.480465E+04  8.731242E+02 -3.135602E-09  1.104678E-09
         3  13 -5.341178E+06 -1.459787E+04 -4.681558E+04  1.162160E-07 -4.378907E-09  2.881799E-10
         3  14 -5.337716E+06  3.374275E+03 -2.415546E+04 -1.246986E-08 -1.074630E-09  1.965144E-10
         3  15 -5.341110E+06  4.414345E+02 -1.480465E+04  4.797066E-08  1.074638E-09 -1.459182E-10
         3  16 -5.341178E+06 -1.459787E+04 -4.681558E+04  1.474059E+03 -6.273466E-10 -8.573863E-11
         3  17 -5.337716E+06  3.374275E+03 -2.415546E+04  3.004561E+02  5.264172E-09  9.000940E-11
         3  18 -5.341110E+06  4.414360E+02 -1.480465E+04 -8.731242E+02  1.754072E-09 -9.587058E-10
         3  19 -5.341177E+06 -1.459753E+04 -4.681321E+04 -1.474059E+03  3.539201E+04 -8.473043E-02
         3  20 -5.337715E+06  3.374419E+03 -2.415445E+04 -3.004561E+02  2.305587E+04 -1.125073E-02
         3  21 -5.341110E+06  4.414671E+02 -1.480443E+04  8.731242E+02  1.071978E+04  1.520137E-02
         3  22 -5.341177E+06 -1.459753E+04 -4.681321E+04  1.304875E-08  3.539201E+04  1.035685E-09
         3  23 -5.337715E+06  3.374419E+03 -2.415445E+04  1.594725E-07  2.305587E+04 -1.128030E-09
         3  24 -5.341110E+06  4.414657E+02 -1.480443E+04  1.081651E-07  1.071978E+04  1.000144E-09
         3  25 -5.341177E+06 -1.459753E+04 -4.681321E+04  1.474059E+03  3.539201E+04  8.473043E-02
         3  26 -5.337715E+06  3.374419E+03 -2.415445E+04  3.004561E+02  2.305587E+04  1.125073E-02
         3  27 -5.341110E+06  4.414671E+02 -1.480443E+04 -8.731242E+02  1.071978E+04 -1.520137E-02
         4   1 -5.339887E+06 -2.146801E+03 -1.182491E+04 -1.987116E+02 -8.320766E+03  2.685388E-03
         4   2 -5.339223E+06  5.497178E+02 -7.032786E+03 -2.483396E+01 -4.784429E+03  1.929713E-04
         4   3 -5.339875E+06 -1.496204E+02 -5.406863E+03  1.490459E+02 -1.248029E+03 -3.021052E-04
         4   4 -5.339887E+06 -2.146801E+03 -1.182491E+04 -5.282378E-09 -8.320766E+03 -1.621351E-09
         4   5 -5.339223E+06  5.497178E+02 -7.032786E+03 -1.589546E-08 -4.784429E+03  1.861732E-09
         4   6 -5.339875E+06 -1.496204E+02 -5.406863E+03  1.089045E-07 -1.248029E+03  4.268282E-10
         4   7 -5.339887E+06 -2.146801E+03 -1.182491E+04  1.987116E+02 -8.320766E+03 -2.685386E-03
         4   8 -5.339223E+06  5.497178E+02 -7.032786E+03  2.483396E+01 -4.784429E+03 -1.929736E-04
         4   9 -5.339875E+06 -1.496204E+02 -5.406863E+03 -1.490459E+02 -1.248029E+03  3.021105E-04
         4  10 -5.339887E+06 -2.146820E+03 -1.182504E+04 -1.987116E+02 -1.311052E-09 -4.400600E-10
         4  11 -5.339223E+06  5.497116E+02 -7.032830E+03 -2.483396E+01  6.638114E-10 -2.620199E-09
         4  12 -5.339875E+06 -1.496208E+02 -5.406866E+03  1.490459E+02  2.554065E-09  2.270794E-10
         4  13 -5.339887E+06 -2.146820E+03 -1.182504E+04  1.191523E-08 -2.725829E-09 -5.342907E-10
         4  14 -5.339223E+06  5.497116E+02 -7.032830E+03  3.569535E-08 -1.907848E-09 -3.744780E-10
         4  15 -5.339875E+06 -1.496208E+02 -5.406866E+03 -2.651131E-08  2.727836E-10  8.331209E-11
         4  16 -5.339887E+06 -2.146820E+03 -1.182504E+04  1.987116E+02  1.304184E-09 -1.979782E-09
         4  17 -5.339223E+06  5.497116E+02 -7.032830E+03  2.483396E+01 -1.267419E-09  2.497987E-10
         4  18 -5.339875E+06 -1.496208E+02 -5.406866E+03 -1.490459E+02  4.211924E-10  8.206820E-10
         4  19 -5.339887E+06 -2.146801E+03 -1.182491E+04 -1.987116E+02  8.320766E+03 -2.685383E-03
         4  20 -5.339223E+06  5.497178E+02 -7.032786E+03 -2.483396E+01  4.784429E+03 -1.929685E-04
         4  21 -5.339875E+06 -1.496204E+02 -5.406863E+03  1.490459E+02  1.248029E+03  3.021096E-04
         4  22 -5.339887E+06 -2.146801E+03 -1.182491E+04  1.666917E-07  8.320766E+03  1.362870E-09
         4  23 -5.339223E+06  5.497178E+02 -7.032786E+03  7.008327E-08  4.784429E+03 -1.838597E-09
         4  24 -5.339875E+06 -1.496204E+02 -5.406863E+03  1.282409E-07  1.248029E+03 -3.068309E-10
         4  25 -5.339887E+06 -2.146801E+03 -1.182491E+04  1.987116E+02  8.320766E+03  2.685387E-03
         4  26 -5.339223E+06  5.497178E+02 -7.032786E+03  2.483396E+01  4.784429E+03  1.929672E-04
         4  27 -5.339875E+06 -1.496204E+02 -5.406863E+03 -1.490459E+02  1.248029E+03 -3.021127E-04
         5   1 -5.339808E+06 -2.679982E+02 -5.153512E+03 -1.118515E+02 -2.962819E+02  5.382504E-05
         5   2 -5.339305E+06  4.156895E+02 -5.616417E+03  1.796772E+01  2.524902E+03  7.367580E-05
         5   3 -5.339815E+06 -1.467610E+03 -8.569676E+03  1.477870E+02  5.346082E+03  1.283201E-03
         5   4 -5.339808E+06 -2.679982E+02 -5.153512E+03  3.486225E-08 -2.962819E+02  5.606159E-10
         5   5 -5.339305E+06  4.156895E+02 -5.616417E+03 -4.193240E-09  2.524902E+03  1.532880E-09
         5   6 -5.339815E+06 -1.467610E+03 -8.569676E+03  1.351447E-07  5.346082E+03 -1.842897E-09
         5   7 -5.339808E+06 -2.679982E+02 -5.153512E+03  1.118515E+02 -2.962819E+02 -5.382517E-05
         5   8 -5.339305E+06  4.156895E+02 -5.616417E+03 -1.796772E+01  2.524902E+03 -7.368206E-05
         5   9 -5.339815E+06 -1.467610E+03 -8.569676E+03 -1.477870E+02  5.346082E+03 -1.283192E-03
         5  10 -5.339808E+06 -2.679982E+02 -5.153512E+03 -1.118515E+02  3.031770E-11  9.859558E-10
         5  11 -5.339305E+06  4.156878E+02 -5.616429E+03  1.796772E+01 -4.399849E-10  5.477552E-10
         5  12 -5.339815E+06 -1.467617E+03 -8.569731E+03  1.477870E+02  1.839381E-09 -1.524156E-10
         5  13 -5.339808E+06 -2.679982E+02 -5.153512E+03  6.926374E-08  2.431150E-09  1.014234E-10
         5  14 -5.339305E+06  4.156878E+02 -5.616429E+03  9.037428E-08  1.316106E-09 -2.111100E-10
         5  15 -5.339815E+06 -1.467617E+03 -8.569731E+03  4.269824E-08 -2.972841E-09 -1.075148E-09
         5  16 -5.339808E+06 -2.679982E+02 -5.153512E+03  1.118515E+02 -1.175369E-10 -2.445604E-10
         5  17 -5.339305E+06  4.156878E+02 -5.616429E+03 -1.796772E+01 -2.219778E-09 -9.680892E-10
         5  18 -5.339815E+06 -1.467617E+03 -8.569731E+03 -1.477870E+02 -3.484570E-09 -1.980645E-09
         5  19 -5.339808E+06 -2.679982E+02 -5.153512E+03 -1.118515E+02  2.962819E+02 -5.381855E-05
         5  20 -5.339305E+06  4.156895E+02 -5.616417E+03  1.796772E+01 -2.524902E+03 -7.367704E-05
         5  21 -5.339815E+06 -1.467610E+03 -8.569676E+03  1.477870E+02 -5.346082E+03 -1.283194E-03
         5  22 -5.339808E+06 -2.679982E+02 -5.153512E+03  1.769293E-08  2.962819E+02 -4.644970E-10
         5  23 -5.339305E+06  4.156895E+02 -5.616417E+03  4.738076E-08 -2.524902E+03 -1.306827E-09
         5  24 -5.339815E+06 -1.467610E+03 -8.569676E+03  7.061412E-08 -5.346082E+03 -3.160022E-10
         5  25 -5.339808E+06 -2.679982E+02 -5.153512E+03  1.118515E+02  2.962819E+02  5.381842E-05
         5  26 -5.339305E+06  4.156895E+02 -5.616417E+03 -1.796772E+01 -2.524902E+03  7.367429E-05
         5  27 -5.339815E+06 -1.467610E+03 -8.569676E+03 -1.477870E+02 -5.346082E+03  1.283190E-03
         6   1 -5.340633E+06  2.793672E+02 -1.050404E+04 -5.988401E+02  7.064353E+03 -6.870742E-03
         6   2 -5.338295E+06  2.319110E+03 -1.675819E+04  2.068366E+02  1.562024E+04  5.247278E-03
         6   3 -5.340679E+06 -1.000772E+04 -3.221002E+04  1.012504E+03  2.417593E+04  3.975571E-02
         6   4 -5.340633E+06  2.793666E+02 -1.050404E+04  1.092981E-07  7.064353E+03 -2.085132E-09
         6   5 -5.338295E+06  2.319110E+03 -1.675819E+04  2.735913E-09  1.562024E+04  1.283146E-09
         6   6 -5.340679E+06 -1.000772E+04 -3.221002E+04  1.197166E-07  2.417593E+04  1.024996E-09
         6   7 -5.340633E+06  2.793672E+02 -1.050404E+04  5.988401E+02  7.064353E+03  6.870741E-03
         6   8 -5.338295E+06  2.319110E+03 -1.675819E+04 -2.068366E+02  1.562024E+04 -5.247279E-03
         6   9 -5.340679E+06 -1.000772E+04 -3.221002E+04 -1.012504E+03  2.417593E+04 -3.975571E-02
         6  10 -5.340633E+06  2.793537E+02 -1.050414E+04 -5.988401E+02 -2.754253E-09  6.696668E-10
         6  11 -5.338295E+06  2.319044E+03 -1.675865E+04  2.068366E+02 -2.285096E-09  3.295019E-09
         6  12 -5.340680E+06 -1.000788E+04 -3.221113E+04  1.012504E+03  5.299040E-09 -1.145627E-09
         6  13 -5.340633E+06  2.793530E+02 -1.050414E+04  5.771982E-08 -4.714207E-09 -8.831909E-10
         6  14 -5.338295E+06  2.319044E+03 -1.675865E+04  2.741133E-09 -3.706564E-09  1.567690E-09
         6  15 -5.340680E+06 -1.000788E+04 -3.221113E+04  1.654224E-08 -3.625603E-10 -2.747188E-11
         6  16 -5.340633E+06  2.793537E+02 -1.050414E+04  5.988401E+02  1.572321E-09 -1.356970E-09
         6  17 -5.338295E+06  2.319044E+03 -1.675865E+04 -2.068366E+02 -1.421468E-09  3.845630E-10
         6  18 -5.340680E+06 -1.000788E+04 -3.221113E+04 -1.012504E+03 -3.399689E-09  9.528258E-10
         6  19 -5.340633E+06  2.793672E+02 -1.050404E+04 -5.988401E+02 -7.064353E+03  6.870747E-03
         6  20 -5.338295E+06  2.319110E+03 -1.675819E+04  2.068366E+02 -1.562024E+04 -5.247274E-03
         6  21 -5.340679E+06 -1.000772E+04 -3.221002E+04  1.012504E+03 -2.417593E+04 -3.975571E-02
         6  22 -5.340633E+06  2.793666E+02 -1.050404E+04  1.265177E-07 -7.064353E+03  5.163621E-10
         6  23 -5.338295E+06  2.319110E+03 -1.675819E+04 -2.304656E-08 -1.562024E+04 -4.647264E-11
         6  24 -5.340679E+06 -1.000772E+04 -3.221002E+04  2.942557E-08 -2.417593E+04 -1.133720E-09
         6  25 -5.340633E+06  2.793672E+02 -1.050404E+04  5.988401E+02 -7.064353E+03 -6.870746E-03
         6  26 -5.338295E+06  2.319110E+03 -1.675819E+04 -2.068366E+02 -1.562024E+04  5.247273E-03
         6  27 -5.340679E+06 -1.000772E+04 -3.221002E+04 -1.012504E+03 -2.417593E+04  3.975570E-02
         7   1 -5.345911E+06  2.260685E+03 -4.018112E+04 -3.875729E+03  3.069214E+04 -1.931985E-01
         7   2 -5.331795E+06  1.545444E+04 -6.463879E+04  1.756000E+03  6.452835E+04  1.840298E-01
         7   3 -5.346142E+06 -6.723689E+04 -1.352332E+05  7.387793E+03  9.836450E+04  1.180244E+00
         7   4 -5.345911E+06  2.260657E+03 -4.018112E+04  1.399641E-07  3.069214E+04  8.459391E-10
         7   5 -5.331795E+06  1.545443E+04 -6.463879E+04  7.074325E-08  6.452835E+04  2.269302E-10
         7   6 -5.346142E+06 -6.723700E+04 -1.352333E+05  1.154103E-07  9.836450E+04 -2.232712E-09
         7   7 -5.345911E+06  2.260685E+03 -4.018112E+04  3.875729E+03  3.069214E+04  1.931985E-01
         7   8 -5.331795E+06  1.545444E+04 -6.463879E+04 -1.756000E+03  6.452835E+04 -1.840298E-01
         7   9 -5.346142E+06 -6.723689E+04 -1.352332E+05 -7.387793E+03  9.836450E+04 -1.180244E+00
         7  10 -5.345912E+06  2.260430E+03 -4.018290E+04 -3.875729E+03  7.730284E-10 -7.881120E-10
         7  11 -5.331799E+06  1.545331E+04 -6.464668E+04  1.756000E+03 -1.883552E-09  1.021381E-09
         7  12 -5.346153E+06 -6.723952E+04 -1.352516E+05  7.387793E+03  1.204907E-09  2.160871E-09
         7  13 -5.345912E+06  2.260401E+03 -4.018291E+04 -1.477872E-08  4.712851E-09 -7.869920E-11
         7  14 -5.331799E+06  1.545330E+04 -6.464668E+04  1.223234E-07  8.338867E-10  5.447072E-10
         7  15 -5.346153E+06 -6.723962E+04 -1.352516E+05 -2.799941E-09 -2.049868E-09 -6.730998E-11
         7  16 -5.345912E+06  2.260430E+03 -4.018290E+04  3.875729E+03  3.015885E-10  3.599962E-10
         7  17 -5.331799E+06  1.545331E+04 -6.464668E+04 -1.756000E+03  4.097206E-09  7.111531E-10
         7  18 -5.346153E+06 -6.723952E+04 -1.352516E+05 -7.387793E+03 -2.135857E-09 -5.626074E-10
         7  19 -5.345911E+06  2.260685E+03 -4.018112E+04 -3.875729E+03 -3.069214E+04  1.931985E-01
         7  20 -5.331795E+06  1.545444E+04 -6.463879E+04  1.756000E+03 -6.452835E+04 -1.840298E-01
         7  21 -5.346142E+06 -6.723689E+04 -1.352332E+05  7.387793E+03 -9.836450E+04 -1.180244E+00
         7  22 -5.345911E+06  2.260657E+03 -4.018112E+04  5.398019E-08 -3.069214E+04 -1.276854E-09
         7  23 -5.331795E+06  1.545443E+04 -6.463879E+04  1.137279E-07 -6.452835E+04  2.044574E-09
         7  24 -5.346142E+06 -6.723700E+04 -1.352333E+05  4.662749E-08 -9.836450E+04  1.891478E-09
         7  25 -5.345911E+06  2.260685E+03 -4.018112E+04  3.875729E+03 -3.069214E+04 -1.931985E-01
         7  26 -5.331795E+06  1.545444E+04 -6.463879E+04 -1.756000E+03 -6.452835E+04  1.840298E-01
         7  27 -5.346142E+06 -6.723689E+04 -1.352332E+05 -7.387793E+03 -9.836450E+04  1.180244E+00
         8   1 -5.379084E+06  1.551863E+04 -1.635174E+05 -2.532019E+04  1.252133E+05 -5.149439E+00
         8   2 -5.290624E+06  1.030079E+05 -2.497467E+05  1.322948E+04  2.615526E+05  5.619328E+00
         8   3 -5.380292E+06 -4.491394E+05 -5.851497E+05  5.177447E+04  3.978976E+05  3.345830E+01
         8   4 -5.379085E+06  1.551741E+04 -1.635176E+05  1.220585E-07  1.252133E+05 -6.853732E-10
         8   5 -5.290625E+06  1.030076E+05 -2.497468E+05  6.210311E-08  2.615526E+05  1.744704E-09
         8   6 -5.380295E+06 -4.491445E+05 -5.851505E+05  2.791230E-08  3.978976E+05  4.874400E-10
         8   7 -5.379084E+06  1.551863E+04 -1.635174E+05  2.532019E+04  1.252133E+05  5.149439E+00
         8   8 -5.290624E+06  1.030079E+05 -2.497467E+05 -1.322948E+04  2.615526E+05 -5.619328E+00
         8   9 -5.380292E+06 -4.491394E+05 -5.851497E+05 -5.177447E+04  3.978976E+05 -3.345830E+01
         8  10 -5.379101E+06  1.551437E+04 -1.635471E+05 -2.532019E+04  3.793573E-09 -7.430671E-10
         8  11 -5.290698E+06  1.029893E+05 -2.498764E+05  1.322948E+04  3.514709E-09  2.123925E-09
         8  12 -5.380463E+06 -4.491823E+05 -5.854498E+05  5.177446E+04  2.368527E-09  7.711266E-10
         8  13 -5.379102E+06  1.551316E+04 -1.635473E+05 -6.707096E-08  1.947931E-09  3.158330E-10
         8  14 -5.290699E+06  1.029890E+05 -2.498764E+05  1.916279E-09  2.386736E-09  1.361619E-09
         8  15 -5.380466E+06 -4.491874E+05 -5.854506E+05 -7.524703E-08 -1.469390E-09  3.981178E-10
         8  16 -5.379101E+06  1.551437E+04 -1.635471E+05  2.532019E+04 -7.358834E-09  4.882174E-10
         8  17 -5.290698E+06  1.029893E+05 -2.498764E+05 -1.322948E+04  5.728999E-10  2.518552E-09
         8  18 -5.380463E+06 -4.491823E+05 -5.854498E+05 -5.177446E+04  1.458219E-09 -1.411649E-10
         8  19 -5.379084E+06  1.551863E+04 -1.635174E+05 -2.532019E+04 -1.252133E+05  5.149439E+00
         8  20 -5.290624E+06  1.030079E+05 -2.497467E+05  1.322948E+04 -2.615526E+05 -5.619328E+00
         8  21 -5.380292E+06 -4.491394E+05 -5.851497E+05  5.177447E+04 -3.978976E+05 -3.345830E+01
         8  22 -5.379085E+06  1.551741E+04 -1.635176E+05 -1.547197E-08 -1.252133E+05  7.671920E-10
         8  23 -5.290625E+06  1.030076E+05 -2.497468E+05  1.051091E-08 -2.615526E+05  6.867417E-10
         8  24 -5.380295E+06 -4.491445E+05 -5.851505E+05 -6.498231E-09 -3.978976E+05  7.856949E-10
         8  25 -5.379084E+06  1.551863E+04 -1.635174E+05  2.532019E+04 -1.252133E+05 -5.149439E+00
         8  26 -5.290624E+06  1.030079E+05 -2.497467E+05 -1.322948E+04 -2.615526E+05  5.619328E+00
         8  27 -5.380292E+06 -4.491394E+05 -5.851497E+05 -5.177447E+04 -3.978976E+05  3.345830E+01
         9   1  2.252768E+06  8.067350E+06  2.141611E+06 -1.584501E+06  1.005941E+05  8.418352E+05
         9   2  1.793753E+06  6.879524E+06  1.430376E+06 -1.445763E+06  3.383538E+05  3.936475E+05
         9   3  1.474323E+06  5.788254E+06  1.044193E+06 -1.488456E+06  3.955502E+05 -5.343169E+04
         9   4  1.469967E+05 -5.127506E+05  1.550788E+05 -1.466684E+06  1.028172E+05  1.048536E+05
         9   5  4.863682E+04 -5.228363E+05  8.050377E+04 -1.376235E+06  3.399296E+05  6.507682E+04
         9   6  2.030777E+04 -5.073150E+05  4.979207E+04 -1.467167E+06  3.955535E+05  2.546502E+04
         9   7 -1.963604E+06 -9.024207E+06 -1.834363E+06 -1.350373E+06  1.047880E+05 -6.221231E+05
         9   8 -1.699495E+06 -7.872074E+06 -1.271180E+06 -1.307453E+06  3.414463E+05 -2.597170E+05
         9   9 -1.435666E+06 -6.763628E+06 -9.455816E+05 -1.446015E+06  3.955621E+05  1.035957E+05
         9  10  2.252569E+06  8.066594E+06  2.140276E+06 -1.584570E+06  3.260387E-10  2.989560E-08
         9  11  1.793588E+06  6.879328E+06  1.429871E+06 -1.445870E+06  2.096438E-09 -1.408345E-08
         9  12  1.474155E+06  5.788209E+06  1.043894E+06 -1.488440E+06  4.648690E-09 -5.949323E-08
         9  13  1.469823E+05 -5.127653E+05  1.550381E+05 -1.466692E+06  4.130638E-10 -3.250830E-11
         9  14  4.851157E+04 -5.228719E+05  8.027850E+04 -1.376252E+06 -3.954488E-09 -6.993851E-11
         9  15  2.013960E+04 -5.073577E+05  4.949680E+04 -1.467175E+06 -1.648422E-08 -1.389527E-10
         9  16 -1.963721E+06 -9.024630E+06 -1.835121E+06 -1.350320E+06  4.807434E-09 -2.963661E-08
         9  17 -1.699639E+06 -7.872178E+06 -1.271527E+06 -1.307381E+06  1.000218E-08  1.379702E-08
         9  18 -1.435837E+06 -6.763682E+06 -9.458963E+05 -1.446048E+06  7.090560E-09  5.876523E-08
         9  19  2.252768E+06  8.067350E+06  2.141611E+06 -1.584501E+06 -1.005941E+05 -8.418352E+05
         9  20  1.793753E+06  6.879524E+06  1.430376E+06 -1.445763E+06 -3.383538E+05 -3.936475E+05
         9  21  1.474323E+06  5.788254E+06  1.044193E+06 -1.488456E+06 -3.955502E+05  5.343169E+04
         9  22  1.469967E+05 -5.127506E+05  1.550788E+05 -1.466684E+06 -1.028172E+05 -1.048536E+05
         9  23  4.863682E+04 -5.228363E+05  8.050377E+04 -1.376235E+06 -3.399296E+05 -6.507682E+04
         9  24  2.030777E+04 -5.073150E+05  4.979207E+04 -1.467167E+06 -3.955535E+05 -2.546502E+04
         9  25 -1.963604E+06 -9.024207E+06 -1.834363E+06 -1.350373E+06 -1.047880E+05  6.221231E+05
         9  26 -1.699495E+06 -7.872074E+06 -1.271180E+06 -1.307453E+06 -3.414463E+05  2.597170E+05
         9  27 -1.435666E+06 -6.763628E+06 -9.455816E+05 -1.446015E+06 -3.955621E+05 -1.035957E+05
        10   1  1.301988E+06  5.063336E+06  8.975682E+05 -1.495730E+06  3.676328E+05 -6.707940E+04
        10   2  1.028595E+06  3.917350E+06  6.785009E+05 -1.388754E+06  3.186890E+05 -1.357351E+05
        10   3  7.778580E+05  2.787027E+06  5.095156E+05 -1.476389E+06  2.471609E+05 -2.044991E+05
        10   4  1.907851E+04 -5.102027E+05  4.175618E+04 -1.470122E+06  3.675024E+05  1.823848E+04
        10   5  1.607290E+04 -5.113283E+05  3.557813E+04 -1.372775E+06  3.181297E+05  3.765659E+02
        10   6  2.705576E+04 -5.068068E+05  4.441134E+04 -1.470117E+06  2.460891E+05 -1.771168E+04
        10   7 -1.265326E+06 -6.052810E+06 -8.147185E+05 -1.444682E+06  3.673780E+05  1.028240E+05
        10   8 -9.973406E+05 -4.920262E+06 -6.075992E+05 -1.356869E+06  3.175743E+05  1.355624E+05
        10   9 -7.242144E+05 -3.789610E+06 -4.207113E+05 -1.463851E+06  2.450170E+05  1.681313E+05
        10  10  1.301842E+06  5.063295E+06  8.973061E+05 -1.495710E+06  1.114378E-09  5.112992E-08
        10  11  1.028481E+06  3.917303E+06  6.782761E+05 -1.388720E+06 -4.747465E-10 -5.807346E-08
        10  12  7.777814E+05  2.786966E+06  5.093231E+05 -1.476349E+06 -2.824919E-09 -1.612686E-07
        10  13  1.893341E+04 -5.102394E+05  4.150175E+04 -1.470128E+06 -1.550019E-08 -1.972808E-11
        10  14  1.596425E+04 -5.113555E+05  3.538799E+04 -1.372775E+06  7.016179E-09  5.887868E-13
        10  15  2.699069E+04 -5.068234E+05  4.429703E+04 -1.470113E+06  9.639763E-09 -2.578108E-10
        10  16 -1.265474E+06 -6.052858E+06 -8.149924E+05 -1.444712E+06  4.977499E-09 -5.091953E-08
        10  17 -9.974540E+05 -4.920309E+06 -6.078239E+05 -1.356903E+06  1.574083E-09  5.772870E-08
        10  18 -7.242867E+05 -3.789656E+06 -4.208779E+05 -1.463884E+06 -8.730221E-09  1.605570E-07
        10  19  1.301988E+06  5.063336E+06  8.975682E+05 -1.495730E+06 -3.676328E+05  6.707940E+04
        10  20  1.028595E+06  3.917350E+06  6.785009E+05 -1.388754E+06 -3.186890E+05  1.357351E+05
        10  21  7.778580E+05  2.787027E+06  5.095156E+05 -1.476389E+06 -2.471609E+05  2.044991E+05
        10  22  1.907851E+04 -5.102027E+05  4.175618E+04 -1.470122E+06 -3.675024E+05 -1.823848E+04
        10  23  1.607290E+04 -5.113283E+05  3.557813E+04 -1.372775E+06 -3.181297E+05 -3.765659E+02
        10  24  2.705576E+04 -5.068068E+05  4.441134E+04 -1.470117E+06 -2.460891E+05  1.771168E+04
        10  25 -1.265326E+06 -6.052810E+06 -8.147185E+05 -1.444682E+06 -3.673780E+05 -1.028240E+05
        10  26 -9.973406E+05 -4.920262E+06 -6.075992E+05 -1.356869E+06 -3.175743E+05 -1.355624E+05
        10  27 -7.242144E+05 -3.789610E+06 -4.207113E+05 -1.463851E+06 -2.450170E+05 -1.681313E+05
        11   1  6.205013E+05  2.081695E+06  4.138339E+05 -1.478846E+06  1.977235E+05 -2.129164E+05
        11   2  3.971747E+05  9.336818E+05  2.888108E+05 -1.322366E+06  1.134582E+05 -2.625454E+05
        11   3  2.477669E+05 -1.897499E+05  2.140660E+05 -1.362087E+06  2.758170E+04 -3.121721E+05
        11   4  3.218401E+04 -5.022700E+05  5.366697E+04 -1.470487E+06  1.965526E+05 -2.544614E+04
        11   5  6.893115E+04 -5.129708E+05  8.958549E+04 -1.372030E+06  1.122068E+05 -7.158656E+04
        11   6  1.790650E+05 -5.011105E+05  1.732587E+05 -1.469696E+06  2.625789E+04 -1.178017E+05
        11   7 -5.564106E+05 -3.079400E+06 -3.064513E+05 -1.462146E+06  1.953832E+05  1.612804E+05
        11   8 -2.593741E+05 -1.957414E+06 -1.095248E+05 -1.421569E+06  1.109228E+05  1.189479E+05
        11   9  1.104235E+05 -8.122653E+05  1.325991E+05 -1.577250E+06  2.486620E+04  7.647581E+04
        11  10  6.204474E+05  2.081636E+06  4.136760E+05 -1.478812E+06 -3.513690E-09  5.439753E-08
        11  11  3.971426E+05  9.336045E+05  2.886576E+05 -1.322342E+06 -9.065782E-10  5.624740E-08
        11  12  2.477400E+05 -1.898547E+05  2.138815E+05 -1.362080E+06 -2.112551E-10  5.173739E-08
        11  13  3.214238E+04 -5.022811E+05  5.359323E+04 -1.470483E+06  1.287115E-08 -1.873063E-10
        11  14  6.891629E+04 -5.129797E+05  8.955229E+04 -1.372024E+06  8.380868E-09 -1.323511E-10
        11  15  1.790605E+05 -5.011256E+05  1.732313E+05 -1.469694E+06  1.549918E-09 -3.058263E-11
        11  16 -5.564587E+05 -3.079438E+06 -3.065724E+05 -1.462172E+06 -5.217482E-09 -5.487718E-08
        11  17 -2.593912E+05 -1.957432E+06 -1.095747E+05 -1.421580E+06 -1.657841E-09 -5.644596E-08
        11  18  1.104213E+05 -8.122718E+05  1.325869E+05 -1.577251E+06 -1.062939E-09 -5.191972E-08
        11  19  6.205013E+05  2.081695E+06  4.138339E+05 -1.478846E+06 -1.977235E+05  2.129164E+05
        11  20  3.971747E+05  9.336818E+05  2.888108E+05 -1.322366E+06 -1.134582E+05  2.625454E+05
        11  21  2.477669E+05 -1.897499E+05  2.140660E+05 -1.362087E+06 -2.758170E+04  3.121721E+05
        11  22  3.218401E+04 -5.022700E+05  5.366697E+04 -1.470487E+06 -1.965526E+05  2.544614E+04
        11  23  6.893115E+04 -5.129708E+05  8.958549E+04 -1.372030E+06 -1.122068E+05  7.158656E+04
        11  24  1.790650E+05 -5.011105E+05  1.732587E+05 -1.469696E+06 -2.625789E+04  1.178017E+05
        11  25 -5.564106E+05 -3.079400E+06 -3.064513E+05 -1.462146E+06 -1.953832E+05 -1.612804E+05
        11  26 -2.593741E+05 -1.957414E+06 -1.095248E+05 -1.421569E+06 -1.109228E+05 -1.189479E+05
        11  27  1.104235E+05 -8.122653E+05  1.325991E+05 -1.577250E+06 -2.486620E+04 -7.647581E+04
        12   1 -6.168536E+06 -1.834993E+06 -1.203264E+06 -2.140568E+06 -6.991606E+05 -2.586896E+05
        12   2 -5.954144E+06 -7.928341E+05 -5.413932E+05 -2.303192E+06 -4.501415E+05 -1.597081E+05
        12   3 -6.141285E+06 -8.600139E+05 -3.616175E+05 -2.228272E+06 -1.984286E+05 -6.788980E+04
        12   4 -5.910345E+06 -1.586165E+06 -1.101771E+06 -1.915316E+06 -6.968594E+05 -2.580432E+05
        12   5 -5.653551E+06 -6.393313E+05 -4.516183E+05 -2.180617E+06 -4.498562E+05 -1.596382E+05