
 stresses (elem, integ.pnt.,sxx,syy,szz,sxy,sxz,syz) for set ELALL and time  0.1000000E+01

         1   1 -3.262377E+06 -2.867080E+05 -3.610692E+05 -9.330043E+04 -2.464889E+05  3.722886E+01
         1   2 -3.212833E+06  3.886409E+04 -1.582877E+05 -2.731165E+04 -1.611855E+05  7.126146E+00
         1   3 -3.261913E+06  1.499629E+04 -9.859337E+04  3.868363E+04 -7.588269E+04 -4.752093E+00
         1   4 -3.262386E+06 -2.867244E+05 -3.610715E+05  1.878089E-08 -2.464889E+05  2.021577E-10
         1   5 -3.212833E+06  3.886268E+04 -1.582879E+05  6.615529E-09 -1.611855E+05 -2.252445E-10
         1   6 -3.261915E+06  1.499346E+04 -9.859378E+04  2.943768E-08 -7.588269E+04 -2.140482E-09
         1   7 -3.262377E+06 -2.867080E+05 -3.610692E+05  9.330043E+04 -2.464889E+05 -3.722886E+01
         1   8 -3.212833E+06  3.886409E+04 -1.582877E+05  2.731165E+04 -1.611855E+05 -7.126146E+00
         1   9 -3.261913E+06  1.499629E+04 -9.859337E+04 -3.868363E+04 -7.588269E+04  4.752093E+00
         1  10 -3.262442E+06 -2.867244E+05 -3.611839E+05 -9.330043E+04  7.426923E-10  3.632855E-10
         1  11 -3.212861E+06  3.885707E+04 -1.583368E+05 -2.731165E+04  1.963788E-09  2.877748E-10
         1  12 -3.261919E+06  1.499473E+04 -9.860425E+04  3.868363E+04  2.072046E-09 -1.693710E-09
         1  13 -3.262452E+06 -2.867408E+05 -3.611863E+05  1.607065E-09  6.713182E-11  2.337136E-10
         1  14 -3.212861E+06  3.885566E+04 -1.583370E+05  1.302762E-08  3.208255E-09  2.373218E-10
         1  15 -3.261921E+06  1.499191E+04 -9.860465E+04  5.097796E-09  3.339651E-10 -9.944119E-10
         1  16 -3.262442E+06 -2.867244E+05 -3.611839E+05  9.330043E+04 -1.267608E-09  1.049711E-10
         1  17 -3.212861E+06  3.885707E+04 -1.583368E+05  2.731165E+04 -1.948024E-09  1.913229E-10
         1  18 -3.261919E+06  1.499473E+04 -9.860425E+04 -3.868363E+04  8.441611E-10 -2.716616E-10
         1  19 -3.262377E+06 -2.867080E+05 -3.610692E+05 -9.330043E+04  2.464889E+05 -3.722886E+01
         1  20 -3.212833E+06  3.886409E+04 -1.582877E+05 -2.731165E+04  1.611855E+05 -7.126146E+00
         1  21 -3.261913E+06  1.499629E+04 -9.859337E+04  3.868363E+04  7.588269E+04  4.752093E+00
         1  22 -3.262386E+06 -2.867244E+05 -3.610715E+05  2.317936E-08  2.464889E+05  2.985780E-10
         1  23 -3.212833E+06  3.886268E+04 -1.582879E+05  1.083016E-08  1.611855E+05  5.028330E-10
         1  24 -3.261915E+06  1.499346E+04 -9.859378E+04  3.345468E-08  7.588269E+04  1.299030E-10
         1  25 -3.262377E+06 -2.867080E+05 -3.610692E+05  9.330043E+04  2.464889E+05  3.722886E+01
         1  26 -3.212833E+06  3.886409E+04 -1.582877E+05  2.731165E+04  1.611855E+05  7.126146E+00
         1  27 -3.261913E+06  1.499629E+04 -9.859337E+04 -3.868363E+04  7.588269E+04 -4.752093E+00
         2   1 -3.242706E+06 -2.912579E+04 -8.033003E+04 -8.475861E+03 -6.070118E+04  8.328797E-01
         2   2 -3.236813E+06  4.107528E+03 -4.101159E+04 -2.130942E+03 -3.973232E+04  1.370614E-01
         2   3 -3.242632E+06  1.515394E+03 -2.435252E+04  4.213943E+03 -1.876307E+04 -1.279960E-01
         2   4 -3.242706E+06 -2.912593E+04 -8.033005E+04  2.323131E-08 -6.070118E+04 -1.028235E-09
         2   5 -3.236813E+06  4.107519E+03 -4.101159E+04  1.437615E-08 -3.973232E+04  2.018371E-09
         2   6 -3.242632E+06  1.515360E+03 -2.435252E+04  2.652627E-08 -1.876307E+04 -7.715647E-10
         2   7 -3.242706E+06 -2.912579E+04 -8.033003E+04  8.475861E+03 -6.070118E+04 -8.328797E-01
         2   8 -3.236813E+06  4.107528E+03 -4.101159E+04  2.130942E+03 -3.973232E+04 -1.370614E-01
         2   9 -3.242632E+06  1.515394E+03 -2.435252E+04 -4.213943E+03 -1.876307E+04  1.279960E-01
         2  10 -3.242710E+06 -2.912679E+04 -8.033699E+04 -8.475861E+03 -2.039057E-09 -1.500522E-09
         2  11 -3.236815E+06  4.107101E+03 -4.101457E+04 -2.130942E+03 -4.252720E-10  6.833284E-10
         2  12 -3.242632E+06  1.515299E+03 -2.435318E+04  4.213943E+03  1.145822E-09 -4.920563E-10
         2  13 -3.242710E+06 -2.912692E+04 -8.033701E+04  6.191995E-09 -4.128337E-09 -6.348514E-10
         2  14 -3.236815E+06  4.107093E+03 -4.101457E+04 -9.293042E-09  1.824937E-10  6.962734E-10
         2  15 -3.242632E+06  1.515265E+03 -2.435319E+04 -5.425663E-09 -3.799272E-09 -5.805691E-10
         2  16 -3.242710E+06 -2.912679E+04 -8.033699E+04  8.475861E+03  9.971229E-10 -3.963662E-10
         2  17 -3.236815E+06  4.107101E+03 -4.101457E+04  2.130942E+03 -4.206750E-10  1.071336E-09
         2  18 -3.242632E+06  1.515299E+03 -2.435318E+04 -4.213943E+03 -2.680647E-09 -4.035255E-10
         2  19 -3.242706E+06 -2.912579E+04 -8.033003E+04 -8.475861E+03  6.070118E+04 -8.328797E-01
         2  20 -3.236813E+06  4.107528E+03 -4.101159E+04 -2.130942E+03  3.973232E+04 -1.370614E-01
         2  21 -3.242632E+06  1.515394E+03 -2.435252E+04  4.213943E+03  1.876307E+04  1.279960E-01
         2  22 -3.242706E+06 -2.912593E+04 -8.033005E+04  1.500009E-08  6.070118E+04 -2.322476E-10
         2  23 -3.236813E+06  4.107519E+03 -4.101159E+04 -1.573610E-08  3.973232E+04 -3.116035E-10
         2  24 -3.242632E+06  1.515360E+03 -2.435252E+04  3.044252E-08  1.876307E+04 -6.322882E-10
         2  25 -3.242706E+06 -2.912579E+04 -8.033003E+04  8.475861E+03  6.070118E+04  8.328797E-01
         2  26 -3.236813E+06  4.107528E+03 -4.101159E+04  2.130942E+03  3.973232E+04  1.370614E-01
         2  27 -3.242632E+06  1.515394E+03 -2.435252E+04 -4.213943E+03  1.876307E+04 -1.279960E-01
         3   1 -3.240394E+06 -2.902311E+03 -1.905109E+04 -5.949126E+02 -1.493959E+04  1.438779E-02
         3   2 -3.239586E+06  4.505012E+02 -1.049508E+04 -5.456147E+01 -9.687201E+03  8.556312E-04
         3   3 -3.240381E+06  1.481461E+02 -6.285590E+03  4.857795E+02 -4.434858E+03 -3.487559E-03
         3   4 -3.240394E+06 -2.902312E+03 -1.905109E+04  5.079913E-09 -1.493959E+04 -1.656571E-09
         3   5 -3.239586E+06  4.505012E+02 -1.049508E+04 -7.110138E-09 -9.687201E+03 -3.690246E-10
         3   6 -3.240381E+06  1.481457E+02 -6.285591E+03  5.444267E-09 -4.434858E+03  6.456232E-11
         3   7 -3.240394E+06 -2.902311E+03 -1.905109E+04  5.949126E+02 -1.493959E+04 -1.438779E-02
         3   8 -3.239586E+06  4.505012E+02 -1.049508E+04  5.456147E+01 -9.687201E+03 -8.556329E-04
         3   9 -3.240381E+06  1.481461E+02 -6.285590E+03 -4.857795E+02 -4.434858E+03  3.487560E-03
         3  10 -3.240395E+06 -2.902371E+03 -1.905151E+04 -5.949126E+02 -5.623434E-09 -2.530535E-10
         3  11 -3.239586E+06  4.504758E+02 -1.049526E+04 -5.456147E+01  1.436567E-09  1.027118E-09
         3  12 -3.240381E+06  1.481408E+02 -6.285628E+03  4.857795E+02 -2.104014E-10  3.091627E-10
         3  13 -3.240395E+06 -2.902372E+03 -1.905151E+04 -7.621370E-09 -4.329722E-09 -5.737370E-10
         3  14 -3.239586E+06  4.504758E+02 -1.049526E+04  1.442437E-08 -1.041990E-09  8.717655E-10
         3  15 -3.240381E+06  1.481404E+02 -6.285628E+03  8.501039E-09  2.789605E-09 -8.284526E-11
         3  16 -3.240395E+06 -2.902371E+03 -1.905151E+04  5.949126E+02  9.801728E-10 -1.154694E-09
         3  17 -3.239586E+06  4.504758E+02 -1.049526E+04  5.456147E+01  1.160846E-09  3.755852E-10
         3  18 -3.240381E+06  1.481408E+02 -6.285628E+03 -4.857795E+02  6.170114E-10  3.582408E-11
         3  19 -3.240394E+06 -2.902311E+03 -1.905109E+04 -5.949126E+02  1.493959E+04 -1.438779E-02
         3  20 -3.239586E+06  4.505012E+02 -1.049508E+04 -5.456147E+01  9.687201E+03 -8.556277E-04
         3  21 -3.240381E+06  1.481461E+02 -6.285590E+03  4.857795E+02  4.434858E+03  3.487560E-03
         3  22 -3.240394E+06 -2.902312E+03 -1.905109E+04  9.780804E-09  1.493959E+04  4.777480E-10
         3  23 -3.239586E+06  4.505012E+02 -1.049508E+04 -7.074459E-09  9.687201E+03  2.043720E-09
         3  24 -3.240381E+06  1.481457E+02 -6.285591E+03  1.798815E-08  4.434858E+03 -5.034826E-10
         3  25 -3.240394E+06 -2.902311E+03 -1.905109E+04  5.949126E+02  1.493959E+04  1.438779E-02
         3  26 -3.239586E+06  4.505012E+02 -1.049508E+04  5.456147E+01  9.687201E+03  8.556314E-04
         3  27 -3.240381E+06  1.481461E+02 -6.285590E+03 -4.857795E+02  4.434858E+03 -3.487561E-03
         4   1 -3.240094E+06 -2.740776E+02 -4.974240E+03 -2.163102E+00 -3.426849E+03  1.200032E-05
         4   2 -3.239938E+06  6.001515E+01 -3.228532E+03  2.232506E+01 -1.825954E+03 -6.599122E-05
         4   3 -3.240092E+06 -9.085935E+00 -2.629972E+03  4.681357E+01 -2.250323E+02 -1.705498E-05
         4   4 -3.240094E+06 -2.740776E+02 -4.974240E+03  2.469986E-09 -3.426849E+03  2.214892E-10
         4   5 -3.239938E+06  6.001515E+01 -3.228532E+03  4.114839E-09 -1.825954E+03 -3.834273E-11
         4   6 -3.240092E+06 -9.085939E+00 -2.629972E+03  1.274459E-08 -2.250323E+02 -1.112053E-09
         4   7 -3.240094E+06 -2.740776E+02 -4.974240E+03  2.163102E+00 -3.426849E+03 -1.199945E-05
         4   8 -3.239938E+06  6.001515E+01 -3.228532E+03 -2.232506E+01 -1.825954E+03  6.599066E-05
         4   9 -3.240092E+06 -9.085935E+00 -2.629972E+03 -4.681357E+01 -2.250323E+02  1.705324E-05
         4  10 -3.240094E+06 -2.740808E+02 -4.974262E+03 -2.163102E+00 -2.119745E-09 -3.369334E-10
         4  11 -3.239938E+06  6.001425E+01 -3.228538E+03  2.232506E+01  1.850736E-09  1.021921E-10
         4  12 -3.240092E+06 -9.085949E+00 -2.629972E+03  4.681357E+01 -8.877225E-11 -9.467336E-10
         4  13 -3.240094E+06 -2.740808E+02 -4.974262E+03 -1.765152E-09  4.256506E-09 -5.256719E-10
         4  14 -3.239938E+06  6.001425E+01 -3.228538E+03 -6.611470E-09  1.222011E-09 -5.803012E-11
         4  15 -3.240092E+06 -9.085953E+00 -2.629972E+03 -7.104991E-10 -1.179701E-09 -1.696551E-10
         4  16 -3.240094E+06 -2.740808E+02 -4.974262E+03  2.163102E+00  1.553004E-09 -4.430903E-10
         4  17 -3.239938E+06  6.001425E+01 -3.228538E+03 -2.232506E+01  2.367326E-10  1.809737E-10
         4  18 -3.240092E+06 -9.085949E+00 -2.629972E+03 -4.681357E+01  1.356783E-09  7.284335E-10
         4  19 -3.240094E+06 -2.740776E+02 -4.974240E+03 -2.163102E+00  3.426849E+03 -1.200078E-05
         4  20 -3.239938E+06  6.001515E+01 -3.228532E+03  2.232506E+01  1.825954E+03  6.599177E-05
         4  21 -3.240092E+06 -9.085935E+00 -2.629972E+03  4.681357E+01  2.250323E+02  1.705407E-05
         4  22 -3.240094E+06 -2.740776E+02 -4.974240E+03  1.553835E-08  3.426849E+03 -1.445632E-09
         4  23 -3.239938E+06  6.001515E+01 -3.228532E+03 -1.735246E-08  1.825954E+03  1.203722E-10
         4  24 -3.240092E+06 -9.085939E+00 -2.629972E+03  1.806998E-08  2.250323E+02  6.154416E-10
         4  25 -3.240094E+06 -2.740776E+02 -4.974240E+03  2.163102E+00  3.426849E+03  1.199743E-05
         4  26 -3.239938E+06  6.001515E+01 -3.228532E+03 -2.232506E+01  1.825954E+03 -6.599092E-05
         4  27 -3.240092E+06 -9.085935E+00 -2.629972E+03 -4.681357E+01  2.250323E+02 -1.705277E-05
         5   1 -3.240092E+06 -8.669500E+00 -2.634078E+03 -4.777130E+01  2.490056E+02 -1.925831E-05
         5   2 -3.239937E+06  6.054301E+01 -3.250905E+03 -2.291085E+01  1.861037E+03 -6.902429E-05
         5   3 -3.240095E+06 -2.772629E+02 -5.023100E+03  1.949617E+00  3.473065E+03  1.096154E-05
         5   4 -3.240092E+06 -8.669504E+00 -2.634078E+03  1.699156E-08  2.490056E+02 -6.590217E-10
         5   5 -3.239937E+06  6.054301E+01 -3.250905E+03  1.182007E-08  1.861037E+03  4.735180E-10
         5   6 -3.240095E+06 -2.772629E+02 -5.023100E+03  2.544164E-08  3.473065E+03 -2.034395E-10
         5   7 -3.240092E+06 -8.669500E+00 -2.634078E+03  4.777130E+01  2.490056E+02  1.925733E-05
         5   8 -3.239937E+06  6.054301E+01 -3.250905E+03  2.291085E+01  1.861037E+03  6.902466E-05
         5   9 -3.240095E+06 -2.772629E+02 -5.023100E+03 -1.949617E+00  3.473065E+03 -1.096106E-05
         5  10 -3.240092E+06 -8.669516E+00 -2.634078E+03 -4.777130E+01  8.605737E-10 -1.051929E-09
         5  11 -3.239937E+06  6.054207E+01 -3.250911E+03 -2.291085E+01  1.515841E-09  4.258834E-11
         5  12 -3.240095E+06 -2.772662E+02 -5.023123E+03  1.949617E+00 -1.593139E-09 -3.866117E-10
         5  13 -3.240092E+06 -8.669521E+00 -2.634078E+03  4.099438E-09  2.343320E-09 -3.045603E-10
         5  14 -3.239937E+06  6.054207E+01 -3.250911E+03  1.611814E-08  2.297574E-09 -1.164050E-10
         5  15 -3.240095E+06 -2.772662E+02 -5.023123E+03  3.245591E-08 -3.119937E-09  1.124875E-10
         5  16 -3.240092E+06 -8.669516E+00 -2.634078E+03  4.777130E+01 -4.631499E-10  7.072331E-10
         5  17 -3.239937E+06  6.054207E+01 -3.250911E+03  2.291085E+01 -9.246639E-10  3.980780E-10
         5  18 -3.240095E+06 -2.772662E+02 -5.023123E+03 -1.949617E+00 -1.716940E-09  2.945543E-10
         5  19 -3.240092E+06 -8.669500E+00 -2.634078E+03 -4.777130E+01 -2.490056E+02  1.925540E-05
         5  20 -3.239937E+06  6.054301E+01 -3.250905E+03 -2.291085E+01 -1.861037E+03  6.902335E-05
         5  21 -3.240095E+06 -2.772629E+02 -5.023100E+03  1.949617E+00 -3.473065E+03 -1.096119E-05
         5  22 -3.240092E+06 -8.669504E+00 -2.634078E+03  2.995922E-08 -2.490056E+02 -6.141401E-11
         5  23 -3.239937E+06  6.054301E+01 -3.250905E+03  3.228111E-09 -1.861037E+03 -8.103098E-10
         5  24 -3.240095E+06 -2.772629E+02 -5.023100E+03  4.802228E-08 -3.473065E+03  3.417354E-10
         5  25 -3.240092E+06 -8.669500E+00 -2.634078E+03  4.777130E+01 -2.490056E+02 -1.925621E-05
         5  26 -3.239937E+06  6.054301E+01 -3.250905E+03  2.291085E+01 -1.861037E+03 -6.902535E-05
         5  27 -3.240095E+06 -2.772629E+02 -5.023100E+03 -1.949617E+00 -3.473065E+03  1.096159E-05
         6   1 -3.240385E+06  1.498733E+02 -6.351629E+03 -4.915321E+02  4.491273E+03 -3.573751E-03
         6   2 -3.239581E+06  4.556858E+02 -1.061243E+04  5.509621E+01  9.802478E+03  8.742984E-04
         6   3 -3.240399E+06 -2.935795E+03 -1.926882E+04  6.017185E+02  1.511357E+04  1.472186E-02
         6   4 -3.240385E+06  1.498729E+02 -6.351630E+03  2.912092E-08  4.491273E+03 -2.208416E-10
         6   5 -3.239581E+06  4.556858E+02 -1.061243E+04  1.194679E-08  9.802478E+03  3.768990E-10
         6   6 -3.240399E+06 -2.935796E+03 -1.926882E+04  6.614348E-09  1.511357E+04 -6.961687E-10
         6   7 -3.240385E+06  1.498733E+02 -6.351629E+03  4.915321E+02  4.491273E+03  3.573750E-03
         6   8 -3.239581E+06  4.556858E+02 -1.061243E+04 -5.509621E+01  9.802478E+03 -8.742985E-04
         6   9 -3.240399E+06 -2.935795E+03 -1.926882E+04 -6.017185E+02  1.511357E+04 -1.472186E-02
         6  10 -3.240385E+06  1.498679E+02 -6.351668E+03 -4.915321E+02 -4.416987E-09 -5.966282E-11
         6  11 -3.239581E+06  4.556598E+02 -1.061262E+04  5.509621E+01 -3.039310E-09  8.388824E-11
         6  12 -3.240399E+06 -2.935857E+03 -1.926925E+04  6.017185E+02  8.571990E-11 -1.249717E-10
         6  13 -3.240385E+06  1.498674E+02 -6.351668E+03  1.623716E-08 -6.913939E-09  1.230632E-10
         6  14 -3.239581E+06  4.556598E+02 -1.061262E+04  1.836875E-08 -3.519405E-09 -3.429337E-12
         6  15 -3.240399E+06 -2.935857E+03 -1.926925E+04  1.406364E-08 -2.639537E-09 -7.849480E-10
         6  16 -3.240385E+06  1.498679E+02 -6.351668E+03  4.915321E+02 -1.712101E-09  3.101763E-10
         6  17 -3.239581E+06  4.556598E+02 -1.061262E+04 -5.509621E+01 -1.790974E-09 -2.254040E-10
         6  18 -3.240399E+06 -2.935857E+03 -1.926925E+04 -6.017185E+02  1.767049E-09 -1.584210E-09
         6  19 -3.240385E+06  1.498733E+02 -6.351629E+03 -4.915321E+02 -4.491273E+03  3.573750E-03
         6  20 -3.239581E+06  4.556858E+02 -1.061243E+04  5.509621E+01 -9.802478E+03 -8.742975E-04
         6  21 -3.240399E+06 -2.935795E+03 -1.926882E+04  6.017185E+02 -1.511357E+04 -1.472186E-02
         6  22 -3.240385E+06  1.498729E+02 -6.351630E+03  3.774225E-08 -4.491273E+03  6.266500E-10
         6  23 -3.239581E+06  4.556858E+02 -1.061243E+04  1.618823E-08 -9.802478E+03 -4.134927E-10
         6  24 -3.240399E+06 -2.935796E+03 -1.926882E+04  3.175604E-08 -1.511357E+04 -8.802242E-10
         6  25 -3.240385E+06  1.498733E+02 -6.351629E+03  4.915321E+02 -4.491273E+03 -3.573749E-03
         6  26 -3.239581E+06  4.556858E+02 -1.061243E+04 -5.509621E+01 -9.802478E+03  8.742971E-04
         6  27 -3.240399E+06 -2.935795E+03 -1.926882E+04 -6.017185E+02 -1.511357E+04  1.472186E-02
         7   1 -3.242662E+06  1.532914E+03 -2.463200E+04 -4.262612E+03  1.898109E+04 -1.309788E-01
         7   2 -3.236776E+06  4.154873E+03 -4.148400E+04  2.155562E+03  4.019161E+04  1.402475E-01
         7   3 -3.242736E+06 -2.946219E+04 -8.125621E+04  8.573864E+03  6.140205E+04  8.522377E-01
         7   4 -3.242662E+06  1.532880E+03 -2.463201E+04  3.995847E-08  1.898109E+04 -1.701585E-09
         7   5 -3.236776E+06  4.154865E+03 -4.148400E+04  9.121019E-09  4.019161E+04 -1.017190E-09
         7   6 -3.242737E+06 -2.946233E+04 -8.125623E+04 -3.947690E-08  6.140205E+04  2.268334E-09
         7   7 -3.242662E+06  1.532914E+03 -2.463200E+04  4.262612E+03  1.898109E+04  1.309787E-01
         7   8 -3.236776E+06  4.154873E+03 -4.148400E+04 -2.155562E+03  4.019161E+04 -1.402475E-01
         7   9 -3.242736E+06 -2.946219E+04 -8.125621E+04 -8.573864E+03  6.140205E+04 -8.522377E-01
         7  10 -3.242662E+06  1.532817E+03 -2.463268E+04 -4.262612E+03 -3.364936E-09  7.184370E-11
         7  11 -3.236778E+06  4.154437E+03 -4.148705E+04  2.155562E+03  4.940676E-09 -4.218612E-10
         7  12 -3.242741E+06 -2.946321E+04 -8.126333E+04  8.573864E+03  7.480842E-09  1.705509E-09
         7  13 -3.242662E+06  1.532783E+03 -2.463269E+04  9.670397E-09  4.933827E-10 -1.095792E-09
         7  14 -3.236778E+06  4.154428E+03 -4.148705E+04  9.484544E-09 -5.523641E-09 -2.375969E-10
         7  15 -3.242741E+06 -2.946335E+04 -8.126335E+04 -1.542317E-08  1.489175E-10  1.937854E-09
         7  16 -3.242662E+06  1.532817E+03 -2.463268E+04  4.262612E+03  1.113141E-09 -1.930790E-09
         7  17 -3.236778E+06  4.154437E+03 -4.148705E+04 -2.155562E+03 -4.592486E-09 -3.116788E-10
         7  18 -3.242741E+06 -2.946321E+04 -8.126333E+04 -8.573864E+03 -6.949704E-09  1.968303E-09
         7  19 -3.242662E+06  1.532914E+03 -2.463200E+04 -4.262612E+03 -1.898109E+04  1.309788E-01
         7  20 -3.236776E+06  4.154873E+03 -4.148400E+04  2.155562E+03 -4.019161E+04 -1.402475E-01
         7  21 -3.242736E+06 -2.946219E+04 -8.125621E+04  8.573864E+03 -6.140205E+04 -8.522377E-01
         7  22 -3.242662E+06  1.532880E+03 -2.463201E+04  2.232988E-08 -1.898109E+04 -6.031131E-10
         7  23 -3.236776E+06  4.154865E+03 -4.148400E+04  5.547761E-09 -4.019161E+04  4.321556E-10
         7  24 -3.242737E+06 -2.946233E+04 -8.125623E+04  6.079388E-08 -6.140205E+04  1.533473E-09
         7  25 -3.242662E+06  1.532914E+03 -2.463200E+04  4.262612E+03 -1.898109E+04 -1.309788E-01
         7  26 -3.236776E+06  4.154873E+03 -4.148400E+04 -2.155562E+03 -4.019161E+04  1.402475E-01
         7  27 -3.242736E+06 -2.946219E+04 -8.125621E+04 -8.573864E+03 -6.140205E+04  8.522377E-01
         8   1 -3.262165E+06  1.516917E+04 -9.973035E+04 -3.912968E+04  7.675874E+04 -4.862384E+00
         8   2 -3.212519E+06  3.931237E+04 -1.601139E+05  2.762674E+04  1.630457E+05  7.291547E+00
         8   3 -3.262634E+06 -2.900169E+05 -3.652349E+05  9.437753E+04  2.493346E+05  3.809340E+01
         8   4 -3.262167E+06  1.516627E+04 -9.973076E+04  5.867364E-08  7.675874E+04  2.878096E-09
         8   5 -3.212520E+06  3.931093E+04 -1.601141E+05  1.150104E-08  1.630457E+05  6.922198E-10
         8   6 -3.262644E+06 -2.900337E+05 -3.652373E+05 -6.120902E-09  2.493346E+05 -2.955777E-10
         8   7 -3.262165E+06  1.516917E+04 -9.973035E+04  3.912968E+04  7.675874E+04  4.862384E+00
         8   8 -3.212519E+06  3.931237E+04 -1.601139E+05 -2.762674E+04  1.630457E+05 -7.291547E+00
         8   9 -3.262634E+06 -2.900169E+05 -3.652349E+05 -9.437753E+04  2.493346E+05 -3.809340E+01
         8  10 -3.262172E+06  1.516757E+04 -9.974148E+04 -3.912968E+04 -9.506730E-09  1.993536E-09
         8  11 -3.212548E+06  3.930519E+04 -1.601641E+05  2.762674E+04 -6.815489E-09 -4.245508E-10
         8  12 -3.262701E+06 -2.900337E+05 -3.653524E+05  9.437753E+04  6.918085E-10 -5.096994E-10
         8  13 -3.262173E+06  1.516468E+04 -9.974189E+04 -6.809647E-09 -4.402552E-09  1.817322E-09
         8  14 -3.212548E+06  3.930375E+04 -1.601643E+05 -1.250229E-08 -2.006726E-09 -2.601630E-10
         8  15 -3.262711E+06 -2.900505E+05 -3.653548E+05 -8.499789E-09 -1.245814E-09 -3.106341E-10
         8  16 -3.262172E+06  1.516757E+04 -9.974148E+04  3.912968E+04  8.159800E-09  2.017084E-09
         8  17 -3.212548E+06  3.930519E+04 -1.601641E+05 -2.762674E+04  3.963419E-09  7.551361E-11
         8  18 -3.262701E+06 -2.900337E+05 -3.653524E+05 -9.437753E+04 -1.770231E-10 -2.733883E-10
         8  19 -3.262165E+06  1.516917E+04 -9.973035E+04 -3.912968E+04 -7.675874E+04  4.862384E+00
         8  20 -3.212519E+06  3.931237E+04 -1.601139E+05  2.762674E+04 -1.630457E+05 -7.291547E+00
         8  21 -3.262634E+06 -2.900169E+05 -3.652349E+05  9.437753E+04 -2.493346E+05 -3.809340E+01
         8  22 -3.262167E+06  1.516627E+04 -9.973076E+04 -5.940433E-08 -7.675874E+04  8.163732E-10
         8  23 -3.212520E+06  3.931093E+04 -1.601141E+05 -1.499177E-08 -1.630457E+05 -9.430915E-10
         8  24 -3.262644E+06 -2.900337E+05 -3.652373E+05  2.995750E-08 -2.493346E+05 -4.226300E-10
         8  25 -3.262165E+06  1.516917E+04 -9.973035E+04  3.912968E+04 -7.675874E+04 -4.862384E+00
         8  26 -3.212519E+06  3.931237E+04 -1.601139E+05 -2.762674E+04 -1.630457E+05  7.291547E+00
         8  27 -3.262634E+06 -2.900169E+05 -3.652349E+05 -9.437753E+04 -2.493346E+05  3.809340E+01
         9   1  2.133707E+06  7.381299E+06  2.054159E+06 -1.311114E+06  9.799255E+04  7.448144E+05
         9   2  1.660764E+06  6.268928E+06  1.399347E+06 -1.143481E+06  3.240945E+05  3.475214E+05
         9   3  1.356165E+06  5.254031E+06  1.044149E+06 -1.179692E+06  3.688904E+05 -4.890488E+04
         9   4  1.965602E+05 -4.954736E+05  2.141446E+05 -1.168855E+06  9.957860E+04  1.475576E+05
         9   5  5.026277E+04 -5.120998E+05  1.062929E+05 -1.067268E+06  3.252537E+05  9.398930E+04
         9   6  1.398986E+04 -4.908838E+05  6.145257E+04 -1.169472E+06  3.687964E+05  4.051266E+04
         9   7 -1.744717E+06 -8.314672E+06 -1.628754E+06 -1.028316E+06  1.009091E+05 -4.422466E+05
         9   8 -1.562886E+06 -7.248945E+06 -1.188603E+06 -9.918326E+05  3.263602E+05 -1.568636E+05
         9   9 -1.329937E+06 -6.203507E+06 -9.223192E+05 -1.159287E+06  3.687046E+05  1.291328E+05
         9  10  2.133550E+06  7.380707E+06  2.053110E+06 -1.311172E+06 -1.996139E-09 -1.186384E-08
         9  11  1.660619E+06  6.268771E+06  1.398923E+06 -1.143571E+06 -1.376168E-09  1.872778E-08
         9  12  1.356019E+06  5.253992E+06  1.043889E+06 -1.179678E+06 -5.657854E-09  4.741450E-08
         9  13  1.965437E+05 -4.954996E+05  2.140848E+05 -1.168867E+06 -2.600198E-09 -1.162853E-10
         9  14  5.014676E+04 -5.121377E+05  1.060773E+05 -1.067293E+06 -1.368636E-09  1.282382E-11
         9  15  1.384336E+04 -4.909221E+05  6.119383E+04 -1.169484E+06 -3.359473E-09  1.333642E-10
         9  16 -1.744781E+06 -8.314886E+06 -1.629146E+06 -1.028280E+06  5.962750E-10  1.157563E-08
         9  17 -1.563007E+06 -7.249000E+06 -1.188850E+06 -9.917912E+05  1.351432E-09 -1.875635E-08
         9  18 -1.330088E+06 -6.203562E+06 -9.226066E+05 -1.159325E+06 -1.041844E-09 -4.694164E-08
         9  19  2.133707E+06  7.381299E+06  2.054159E+06 -1.311114E+06 -9.799255E+04 -7.448144E+05
         9  20  1.660764E+06  6.268928E+06  1.399347E+06 -1.143481E+06 -3.240945E+05 -3.475214E+05
         9  21  1.356165E+06  5.254031E+06  1.044149E+06 -1.179692E+06 -3.688904E+05  4.890488E+04
         9  22  1.965602E+05 -4.954736E+05  2.141446E+05 -1.168855E+06 -9.957860E+04 -1.475576E+05
         9  23  5.026277E+04 -5.120998E+05  1.062929E+05 -1.067268E+06 -3.252537E+05 -9.398930E+04
         9  24  1.398986E+04 -4.908838E+05  6.145257E+04 -1.169472E+06 -3.687964E+05 -4.051266E+04
         9  25 -1.744717E+06 -8.314672E+06 -1.628754E+06 -1.028316E+06 -1.009091E+05  4.422466E+05
         9  26 -1.562886E+06 -7.248945E+06 -1.188603E+06 -9.918326E+05 -3.263602E+05  1.568636E+05
         9  27 -1.329937E+06 -6.203507E+06 -9.223192E+05 -1.159287E+06 -3.687046E+05 -1.291328E+05
        10   1  1.194540E+06  4.557625E+06  8.998423E+05 -1.194180E+06  3.360139E+05 -4.613839E+04
        10   2  9.354678E+05  3.489296E+06  6.804266E+05 -1.079668E+06  2.855996E+05 -9.685011E+04
        10   3  6.936455E+05  2.432543E+06  4.980553E+05 -1.181350E+06  2.170419E+05 -1.477087E+05
        10   4  1.577529E+04 -4.968871E+05  4.859494E+04 -1.172211E+06  3.358705E+05  3.203236E+04
        10   5  9.937336E+03 -4.977795E+05  3.289521E+04 -1.064087E+06  2.851436E+05  1.553684E+04
        10   6  1.552920E+04 -4.940749E+05  3.063636E+04 -1.172237E+06  2.162133E+05 -1.187966E+03
        10   7 -1.164326E+06 -5.526318E+06 -8.034422E+05 -1.150376E+06  3.357318E+05  1.095901E+05
        10   8 -9.163938E+05 -4.469119E+06 -6.150332E+05 -1.048577E+06  2.846913E+05  1.272301E+05
        10   9 -6.630044E+05 -3.412151E+06 -4.369262E+05 -1.163148E+06  2.153863E+05  1.446690E+05
        10  10  1.194419E+06  4.557592E+06  8.996263E+05 -1.194167E+06 -5.560339E-09 -5.070361E-08
        10  11  9.353778E+05  3.489264E+06  6.802560E+05 -1.079646E+06  2.780661E-09 -1.973513E-08
        10  12  6.935892E+05  2.432507E+06  4.979262E+05 -1.181324E+06 -9.785190E-10  1.367574E-08
        10  13  1.565388E+04 -4.969184E+05  4.838098E+04 -1.172220E+06 -3.929831E-09  1.636969E-10
        10  14  9.849974E+03 -4.978016E+05  3.274197E+04 -1.064091E+06 -2.988663E-09  1.187690E-10
        10  15  1.547901E+04 -4.940874E+05  3.054854E+04 -1.172236E+06  1.213831E-09  7.699234E-11
        10  16 -1.164451E+06 -5.526361E+06 -8.036771E+05 -1.150406E+06 -3.966033E-09  5.016692E-08
        10  17 -9.164852E+05 -4.469158E+06 -6.152164E+05 -1.048606E+06 -3.965046E-09  1.969846E-08
        10  18 -6.630599E+05 -3.412186E+06 -4.370532E+05 -1.163173E+06 -1.000171E-09 -1.363262E-08
        10  19  1.194540E+06  4.557625E+06  8.998423E+05 -1.194180E+06 -3.360139E+05  4.613839E+04
        10  20  9.354678E+05  3.489296E+06  6.804266E+05 -1.079668E+06 -2.855996E+05  9.685011E+04
        10  21  6.936455E+05  2.432543E+06  4.980553E+05 -1.181350E+06 -2.170419E+05  1.477087E+05
        10  22  1.577529E+04 -4.968871E+05  4.859494E+04 -1.172211E+06 -3.358705E+05 -3.203236E+04
        10  23  9.937336E+03 -4.977795E+05  3.289521E+04 -1.064087E+06 -2.851436E+05 -1.553684E+04
        10  24  1.552920E+04 -4.940749E+05  3.063636E+04 -1.172237E+06 -2.162133E+05  1.187966E+03
        10  25 -1.164326E+06 -5.526318E+06 -8.034422E+05 -1.150376E+06 -3.357318E+05 -1.095901E+05
        10  26 -9.163938E+05 -4.469119E+06 -6.150332E+05 -1.048577E+06 -2.846913E+05 -1.272301E+05
        10  27 -6.630044E+05 -3.412151E+06 -4.369262E+05 -1.163148E+06 -2.153863E+05 -1.446690E+05
        11   1  5.365157E+05  1.754687E+06  3.868826E+05 -1.184260E+06  1.708978E+05 -1.520562E+05
        11   2  3.056719E+05  6.878342E+05  2.287729E+05 -1.044172E+06  9.491076E+04 -1.706043E+05
        11   3  1.181854E+05 -3.668553E+05  9.290564E+04 -1.121280E+06  2.199767E+04 -1.891752E+05
        11   4  1.667630E+04 -4.917609E+05  3.273969E+04 -1.172474E+06  1.699998E+05 -6.432694E+03
        11   5  3.264309E+04 -4.973302E+05  4.683464E+04 -1.063680E+06  9.400197E+04 -3.082797E+04
        11   6  9.304113E+04 -4.908972E+05  8.718035E+04 -1.172053E+06  2.108198E+04 -5.527285E+04
        11   7 -5.034014E+05 -2.733143E+06 -3.214488E+05 -1.160720E+06  1.691050E+05  1.386845E+05
        11   8 -2.404413E+05 -1.681047E+06 -1.350609E+05 -1.083147E+06  9.308324E+04  1.086920E+05
        11   9  6.791603E+04 -6.148778E+05  8.152486E+04 -1.222814E+06  2.014424E+04  7.860492E+04
        11  10  5.364782E+05  1.754655E+06  3.867846E+05 -1.184239E+06 -4.836109E-10  4.241980E-09
        11  11  3.056545E+05  6.878006E+05  2.287015E+05 -1.044159E+06  7.738570E-10  2.040291E-10
        11  12  1.181753E+05 -3.668939E+05  9.283748E+04 -1.121277E+06  2.502921E-09 -4.318819E-09
        11  13  1.664527E+04 -4.917687E+05  3.268533E+04 -1.172473E+06  9.414389E-10  2.412476E-10
        11  14  3.263336E+04 -4.973335E+05  4.681627E+04 -1.063678E+06  1.848528E-09 -1.766110E-11
        11  15  9.303983E+04 -4.909006E+05  8.717378E+04 -1.172052E+06  2.521547E-09 -8.977754E-12
        11  16 -5.034373E+05 -2.733172E+06 -3.215391E+05 -1.160739E+06 -1.394003E-09 -4.009066E-09
        11  17 -2.404538E+05 -1.681062E+06 -1.350995E+05 -1.083155E+06  1.127017E-09  7.393236E-11
        11  18  6.791393E+04 -6.148845E+05  8.151246E+04 -1.222816E+06  4.669339E-10  4.444687E-09
        11  19  5.365157E+05  1.754687E+06  3.868826E+05 -1.184260E+06 -1.708978E+05  1.520562E+05
        11  20  3.056719E+05  6.878342E+05  2.287729E+05 -1.044172E+06 -9.491076E+04  1.706043E+05
        11  21  1.181854E+05 -3.668553E+05  9.290564E+04 -1.121280E+06 -2.199767E+04  1.891752E+05
        11  22  1.667630E+04 -4.917609E+05  3.273969E+04 -1.172474E+06 -1.699998E+05  6.432694E+03
        11  23  3.264309E+04 -4.973302E+05  4.683464E+04 -1.063680E+06 -9.400197E+04  3.082797E+04
        11  24  9.304113E+04 -4.908972E+05  8.718035E+04 -1.172053E+06 -2.108198E+04  5.527285E+04
        11  25 -5.034014E+05 -2.733143E+06 -3.214488E+05 -1.160720E+06 -1.691050E+05 -1.386845E+05
        11  26 -2.404413E+05 -1.681047E+06 -1.350609E+05 -1.083147E+06 -9.308324E+04 -1.086920E+05
        11  27  6.791603E+04 -6.148778E+05  8.152486E+04 -1.222814E+06 -2.014424E+04 -7.860492E+04
        12   1 -4.124593E+06 -1.186063E+06 -6.770479E+05 -1.510534E+06 -3.875991E+05 -1.420239E+05
        12   2 -4.018786E+06 -5.938133E+05 -3.111857E+05 -1.559055E+06 -2.485499E+05 -8.408600E+04
        12   3 -4.112826E+06 -5.713135E+05 -2.001714E+05 -1.494280E+06 -1.069065E+05 -3.303789E+04
        12   4 -3.953084E+06 -9.874774E+05 -6.036880E+05 -1.326318E+06 -3.834350E+05 -1.405686E+05
        12   5 -3.821909E+06 -4.812814E+05 -2.518383E+05 -1.465847E+06 -2.477657E+05 -8.381168E+04