
 stresses (elem, integ.pnt.,sxx,syy,szz,sxy,sxz,syz) for set ELALL and time  0.1000000E+01

         1   1 -5.255306E+06 -6.301859E+05 -8.183961E+05 -9.256034E+04 -5.568248E+05  8.368810E+01
         1   2 -5.131031E+06  1.394039E+05 -3.500813E+05 -2.394551E+04 -3.658601E+05  1.422368E+01
         1   3 -5.253692E+06  2.315966E+04 -2.281868E+05  4.468213E+04 -1.749036E+05 -1.269079E+01
         1   4 -5.255315E+06 -6.302022E+05 -8.183985E+05  6.688565E-08 -5.568248E+05  3.246771E-10
         1   5 -5.131032E+06  1.394028E+05 -3.500815E+05  6.680197E-08 -3.658601E+05  5.071349E-10
         1   6 -5.253694E+06  2.315588E+04 -2.281874E+05  1.397956E-07 -1.749036E+05 -8.816531E-10
         1   7 -5.255306E+06 -6.301859E+05 -8.183961E+05  9.256034E+04 -5.568248E+05 -8.368810E+01
         1   8 -5.131031E+06  1.394039E+05 -3.500813E+05  2.394551E+04 -3.658601E+05 -1.422368E+01
         1   9 -5.253692E+06  2.315966E+04 -2.281868E+05 -4.468213E+04 -1.749036E+05  1.269079E+01
         1  10 -5.255641E+06 -6.302700E+05 -8.189837E+05 -9.256032E+04  1.110707E-09  5.402035E-10
         1  11 -5.131176E+06  1.393676E+05 -3.503350E+05 -2.394551E+04  2.748251E-09  1.246390E-11
         1  12 -5.253725E+06  2.315136E+04 -2.282448E+05  4.468213E+04  4.244995E-09 -4.314049E-10
         1  13 -5.255650E+06 -6.302863E+05 -8.189860E+05 -1.907998E-08 -2.215524E-09  1.363747E-10
         1  14 -5.131176E+06  1.393665E+05 -3.503351E+05  4.959900E-08 -1.200580E-11  1.391121E-10
         1  15 -5.253727E+06  2.314758E+04 -2.282454E+05  7.526742E-08  2.954896E-09  1.364788E-10
         1  16 -5.255641E+06 -6.302700E+05 -8.189837E+05  9.256032E+04  1.378241E-09  2.740929E-10
         1  17 -5.131176E+06  1.393676E+05 -3.503350E+05  2.394551E+04  2.665580E-09  8.055478E-10
         1  18 -5.253725E+06  2.315136E+04 -2.282448E+05 -4.468213E+04  1.685030E-09 -3.364095E-10
         1  19 -5.255306E+06 -6.301859E+05 -8.183961E+05 -9.256034E+04  5.568248E+05 -8.368810E+01
         1  20 -5.131031E+06  1.394039E+05 -3.500813E+05 -2.394551E+04  3.658601E+05 -1.422368E+01
         1  21 -5.253692E+06  2.315966E+04 -2.281868E+05  4.468213E+04  1.749036E+05  1.269079E+01
         1  22 -5.255315E+06 -6.302022E+05 -8.183985E+05  3.253876E-08  5.568248E+05 -1.348119E-10
         1  23 -5.131032E+06  1.394028E+05 -3.500815E+05 -5.359956E-08  3.658601E+05  3.088365E-12
         1  24 -5.253694E+06  2.315588E+04 -2.281874E+05  8.600464E-08  1.749036E+05  1.011982E-09
         1  25 -5.255306E+06 -6.301859E+05 -8.183961E+05  9.256034E+04  5.568248E+05  8.368810E+01
         1  26 -5.131031E+06  1.394039E+05 -3.500813E+05  2.394551E+04  3.658601E+05  1.422368E+01
         1  27 -5.253692E+06  2.315966E+04 -2.281868E+05 -4.468213E+04  1.749036E+05 -1.269079E+01
         2   1 -5.207794E+06 -9.142960E+04 -1.884847E+05 -1.274682E+04 -1.376551E+05  2.849160E+00
         2   2 -5.188409E+06  2.029042E+04 -9.064247E+04 -3.050566E+03 -9.031940E+04  4.473808E-01
         2   3 -5.207485E+06  3.277392E+03 -5.598463E+04  6.645716E+03 -4.298252E+04 -4.638342E-01
         2   4 -5.207794E+06 -9.142991E+04 -1.884848E+05  3.356675E-08 -1.376551E+05 -1.454723E-09
         2   5 -5.188409E+06  2.029040E+04 -9.064247E+04 -3.033332E-08 -9.031940E+04  5.155127E-10
         2   6 -5.207485E+06  3.277308E+03 -5.598464E+04  5.837499E-08 -4.298252E+04  3.888605E-10
         2   7 -5.207794E+06 -9.142960E+04 -1.884847E+05  1.274682E+04 -1.376551E+05 -2.849160E+00
         2   8 -5.188409E+06  2.029042E+04 -9.064247E+04  3.050566E+03 -9.031940E+04 -4.473808E-01
         2   9 -5.207485E+06  3.277392E+03 -5.598463E+04 -6.645716E+03 -4.298252E+04  4.638342E-01
         2  10 -5.207814E+06 -9.143474E+04 -1.885206E+05 -1.274682E+04  1.159964E-09  6.960626E-12
         2  11 -5.188418E+06  2.028821E+04 -9.065793E+04 -3.050566E+03 -2.012060E-09  6.012848E-10
         2  12 -5.207487E+06  3.276891E+03 -5.598813E+04  6.645716E+03 -4.035687E-09  4.944042E-10
         2  13 -5.207814E+06 -9.143505E+04 -1.885207E+05 -1.801852E-08  4.415345E-09 -4.067980E-11
         2  14 -5.188418E+06  2.028819E+04 -9.065793E+04 -3.033119E-08  2.441780E-09  1.259329E-10
         2  15 -5.207487E+06  3.276807E+03 -5.598814E+04 -3.941909E-09  2.912643E-09  5.406436E-10
         2  16 -5.207814E+06 -9.143474E+04 -1.885206E+05  1.274682E+04  2.114063E-09  1.278389E-10
         2  17 -5.188418E+06  2.028821E+04 -9.065793E+04  3.050566E+03 -8.169357E-10 -1.098663E-09
         2  18 -5.207487E+06  3.276891E+03 -5.598813E+04 -6.645716E+03  8.787430E-10  2.049168E-10
         2  19 -5.207794E+06 -9.142960E+04 -1.884847E+05 -1.274682E+04  1.376551E+05 -2.849160E+00
         2  20 -5.188409E+06  2.029042E+04 -9.064247E+04 -3.050566E+03  9.031940E+04 -4.473807E-01
         2  21 -5.207485E+06  3.277392E+03 -5.598463E+04  6.645716E+03  4.298252E+04  4.638342E-01
         2  22 -5.207794E+06 -9.142991E+04 -1.884848E+05  3.355201E-08  1.376551E+05  7.821186E-10
         2  23 -5.188409E+06  2.029040E+04 -9.064247E+04 -1.313273E-08  9.031940E+04 -4.202204E-10
         2  24 -5.207485E+06  3.277308E+03 -5.598464E+04  1.099990E-07  4.298252E+04  2.619898E-10
         2  25 -5.207794E+06 -9.142960E+04 -1.884847E+05  1.274682E+04  1.376551E+05  2.849160E+00
         2  26 -5.188409E+06  2.029042E+04 -9.064247E+04  3.050566E+03  9.031940E+04  4.473807E-01
         2  27 -5.207485E+06  3.277392E+03 -5.598463E+04 -6.645716E+03  4.298252E+04 -4.638342E-01
         3   1 -5.200379E+06 -1.318202E+04 -4.471134E+04 -1.670345E+03 -3.394587E+04  9.206984E-02
         3   2 -5.197235E+06  2.947673E+03 -2.324028E+04 -3.357633E+02 -2.210614E+04  1.205228E-02
         3   3 -5.200318E+06  4.286521E+02 -1.418737E+04  9.987922E+02 -1.026644E+04 -1.665025E-02
         3   4 -5.200379E+06 -1.318202E+04 -4.471134E+04  7.370234E-08 -3.394587E+04  3.117646E-10
         3   5 -5.197235E+06  2.947672E+03 -2.324028E+04  7.553766E-08 -2.210614E+04 -5.329403E-10
         3   6 -5.200318E+06  4.286502E+02 -1.418737E+04  6.448029E-08 -1.026644E+04  3.625879E-11
         3   7 -5.200379E+06 -1.318202E+04 -4.471134E+04  1.670345E+03 -3.394587E+04 -9.206983E-02
         3   8 -5.197235E+06  2.947673E+03 -2.324028E+04  3.357633E+02 -2.210614E+04 -1.205229E-02
         3   9 -5.200318E+06  4.286521E+02 -1.418737E+04 -9.987922E+02 -1.026644E+04  1.665025E-02
         3  10 -5.200380E+06 -1.318233E+04 -4.471352E+04 -1.670345E+03 -5.148561E-09  5.598365E-10
         3  11 -5.197236E+06  2.947540E+03 -2.324121E+04 -3.357633E+02 -2.222306E-09  2.706926E-10
         3  12 -5.200318E+06  4.286235E+02 -1.418757E+04  9.987922E+02  1.602003E-09 -5.409478E-10
         3  13 -5.200380E+06 -1.318234E+04 -4.471352E+04  7.369292E-08 -6.129553E-09  3.647536E-10
         3  14 -5.197236E+06  2.947540E+03 -2.324121E+04  4.974735E-08 -5.373462E-09 -8.837052E-11
         3  15 -5.200318E+06  4.286216E+02 -1.418757E+04  3.009661E-08  1.477994E-09 -1.024357E-11
         3  16 -5.200380E+06 -1.318233E+04 -4.471352E+04  1.670345E+03 -4.188129E-09  1.563870E-09
         3  17 -5.197236E+06  2.947540E+03 -2.324121E+04  3.357633E+02 -4.943512E-09 -2.208454E-10
         3  18 -5.200318E+06  4.286235E+02 -1.418757E+04 -9.987922E+02 -1.267958E-09  1.402000E-10
         3  19 -5.200379E+06 -1.318202E+04 -4.471134E+04 -1.670345E+03  3.394587E+04 -9.206983E-02
         3  20 -5.197235E+06  2.947673E+03 -2.324028E+04 -3.357633E+02  2.210614E+04 -1.205228E-02
         3  21 -5.200318E+06  4.286521E+02 -1.418737E+04  9.987922E+02  1.026644E+04  1.665025E-02
         3  22 -5.200379E+06 -1.318202E+04 -4.471134E+04  7.369398E-08  3.394587E+04  5.366066E-10
         3  23 -5.197235E+06  2.947672E+03 -2.324028E+04  7.554080E-08  2.210614E+04  8.606271E-10
         3  24 -5.200318E+06  4.286502E+02 -1.418737E+04  6.448658E-08  1.026644E+04 -2.596090E-11
         3  25 -5.200379E+06 -1.318202E+04 -4.471134E+04  1.670345E+03  3.394587E+04  9.206983E-02
         3  26 -5.197235E+06  2.947673E+03 -2.324028E+04  3.357633E+02  2.210614E+04  1.205228E-02
         3  27 -5.200318E+06  4.286521E+02 -1.418737E+04 -9.987922E+02  1.026644E+04 -1.665025E-02
         4   1 -5.199204E+06 -1.875124E+03 -1.131056E+04 -2.118458E+02 -7.972960E+03  2.742614E-03
         4   2 -5.198608E+06  4.658745E+02 -6.780249E+03 -2.378359E+01 -4.570482E+03  1.765071E-04
         4   3 -5.199193E+06 -1.240353E+02 -5.211813E+03  1.642811E+02 -1.167942E+03 -3.115531E-04
         4   4 -5.199204E+06 -1.875124E+03 -1.131056E+04  8.208191E-08 -7.972960E+03  3.462568E-10
         4   5 -5.198608E+06  4.658745E+02 -6.780249E+03  4.660723E-08 -4.570482E+03  7.739637E-10
         4   6 -5.199193E+06 -1.240353E+02 -5.211813E+03  1.035444E-07 -1.167942E+03 -6.639636E-10
         4   7 -5.199204E+06 -1.875124E+03 -1.131056E+04  2.118458E+02 -7.972960E+03 -2.742609E-03
         4   8 -5.198608E+06  4.658745E+02 -6.780249E+03  2.378359E+01 -4.570482E+03 -1.765089E-04
         4   9 -5.199193E+06 -1.240353E+02 -5.211813E+03 -1.642811E+02 -1.167942E+03  3.115564E-04
         4  10 -5.199204E+06 -1.875141E+03 -1.131068E+04 -2.118458E+02  9.420065E-10 -1.520921E-10
         4  11 -5.198608E+06  4.658688E+02 -6.780288E+03 -2.378359E+01  1.781638E-09  9.309218E-10
         4  12 -5.199193E+06 -1.240356E+02 -5.211816E+03  1.642811E+02  6.774599E-10 -1.865397E-09
         4  13 -5.199204E+06 -1.875142E+03 -1.131068E+04  4.770775E-08  2.048390E-09  6.906719E-11
         4  14 -5.198608E+06  4.658688E+02 -6.780288E+03  5.520497E-08  1.309784E-09  2.971135E-10
         4  15 -5.199193E+06 -1.240357E+02 -5.211816E+03  4.121201E-08  1.943555E-09  4.379589E-10
         4  16 -5.199204E+06 -1.875141E+03 -1.131068E+04  2.118458E+02 -1.378165E-09  1.366727E-09
         4  17 -5.198608E+06  4.658688E+02 -6.780288E+03  2.378359E+01 -1.261109E-09  2.030231E-10
         4  18 -5.199193E+06 -1.240356E+02 -5.211816E+03 -1.642811E+02  3.176388E-09  2.155075E-10
         4  19 -5.199204E+06 -1.875124E+03 -1.131056E+04 -2.118458E+02  7.972960E+03 -2.742613E-03
         4  20 -5.198608E+06  4.658745E+02 -6.780249E+03 -2.378359E+01  4.570482E+03 -1.765065E-04
         4  21 -5.199193E+06 -1.240353E+02 -5.211813E+03  1.642811E+02  1.167942E+03  3.115550E-04
         4  22 -5.199204E+06 -1.875124E+03 -1.131056E+04  6.491787E-08  7.972960E+03 -4.359983E-10
         4  23 -5.198608E+06  4.658745E+02 -6.780249E+03 -4.976024E-09  4.570482E+03 -6.090458E-10
         4  24 -5.199193E+06 -1.240353E+02 -5.211813E+03  6.269689E-08  1.167942E+03  1.705633E-09
         4  25 -5.199204E+06 -1.875124E+03 -1.131056E+04  2.118458E+02  7.972960E+03  2.742606E-03
         4  26 -5.198608E+06  4.658745E+02 -6.780249E+03  2.378359E+01  4.570482E+03  1.765046E-04
         4  27 -5.199193E+06 -1.240353E+02 -5.211813E+03 -1.642811E+02  1.167942E+03 -3.115535E-04
         5   1 -5.199135E+06 -2.212128E+02 -4.977666E+03 -1.232191E+02 -2.503888E+02  5.009796E-05
         5   2 -5.198677E+06  3.564534E+02 -5.475825E+03  1.855497E+01  2.494939E+03  7.517172E-05
         5   3 -5.199141E+06 -1.306887E+03 -8.332832E+03  1.603292E+02  5.240262E+03  1.364241E-03
         5   4 -5.199135E+06 -2.212128E+02 -4.977666E+03  5.710355E-08 -2.503888E+02  7.739195E-11
         5   5 -5.198677E+06  3.564534E+02 -5.475825E+03  2.812231E-08  2.494939E+03  2.017568E-09
         5   6 -5.199141E+06 -1.306887E+03 -8.332832E+03 -2.236383E-08  5.240262E+03  4.772140E-10
         5   7 -5.199135E+06 -2.212128E+02 -4.977666E+03  1.232191E+02 -2.503888E+02 -5.009466E-05
         5   8 -5.198677E+06  3.564534E+02 -5.475825E+03 -1.855497E+01  2.494939E+03 -7.517218E-05
         5   9 -5.199141E+06 -1.306887E+03 -8.332832E+03 -1.603292E+02  5.240262E+03 -1.364237E-03
         5  10 -5.199135E+06 -2.212128E+02 -4.977666E+03 -1.232191E+02  1.208766E-09  1.133397E-09
         5  11 -5.198677E+06  3.564517E+02 -5.475837E+03  1.855497E+01  1.074708E-09  2.439737E-10
         5  12 -5.199142E+06 -1.306894E+03 -8.332884E+03  1.603292E+02 -2.900588E-09  8.649377E-10
         5  13 -5.199135E+06 -2.212129E+02 -4.977666E+03  5.526658E-09  4.701989E-09  5.895246E-10
         5  14 -5.198677E+06  3.564517E+02 -5.475837E+03 -1.486843E-08  1.309799E-09  8.587093E-10
         5  15 -5.199142E+06 -1.306895E+03 -8.332884E+03 -5.674530E-08  1.179796E-09  6.184289E-10
         5  16 -5.199135E+06 -2.212128E+02 -4.977666E+03  1.232191E+02 -3.207615E-09  1.125581E-09
         5  17 -5.198677E+06  3.564517E+02 -5.475837E+03 -1.855497E+01 -1.015936E-09  9.325686E-10
         5  18 -5.199142E+06 -1.306894E+03 -8.332884E+03 -1.603292E+02  2.296206E-09  1.253871E-09
         5  19 -5.199135E+06 -2.212128E+02 -4.977666E+03 -1.232191E+02  2.503888E+02 -5.009694E-05
         5  20 -5.198677E+06  3.564534E+02 -5.475825E+03  1.855497E+01 -2.494939E+03 -7.516856E-05
         5  21 -5.199141E+06 -1.306887E+03 -8.332832E+03  1.603292E+02 -5.240262E+03 -1.364236E-03
         5  22 -5.199135E+06 -2.212128E+02 -4.977666E+03  5.710879E-08  2.503888E+02  1.295939E-09
         5  23 -5.198677E+06  3.564534E+02 -5.475825E+03  1.092476E-08 -2.494939E+03 -1.199362E-09
         5  24 -5.199141E+06 -1.306887E+03 -8.332832E+03  4.855901E-08 -5.240262E+03  1.209864E-09
         5  25 -5.199135E+06 -2.212128E+02 -4.977666E+03  1.232191E+02  2.503888E+02  5.009741E-05
         5  26 -5.198677E+06  3.564534E+02 -5.475825E+03 -1.855497E+01 -2.494939E+03  7.516687E-05
         5  27 -5.199141E+06 -1.306887E+03 -8.332832E+03 -1.603292E+02 -5.240262E+03  1.364239E-03
         6   1 -5.199903E+06  2.814263E+02 -1.024259E+04 -6.977583E+02  6.911097E+03 -7.830282E-03
         6   2 -5.197739E+06  2.064440E+03 -1.642594E+04  2.358160E+02  1.527679E+04  5.849637E-03
         6   3 -5.199945E+06 -9.212538E+03 -3.135476E+04  1.169380E+03  2.364228E+04  4.489204E-02
         6   4 -5.199903E+06  2.814254E+02 -1.024259E+04  6.047092E-10  6.911097E+03 -2.322186E-10
         6   5 -5.197739E+06  2.064440E+03 -1.642594E+04  3.610102E-08  1.527679E+04  1.251042E-09
         6   6 -5.199945E+06 -9.212541E+03 -3.135476E+04  1.785448E-08  2.364228E+04  1.214778E-09
         6   7 -5.199903E+06  2.814263E+02 -1.024259E+04  6.977583E+02  6.911097E+03  7.830281E-03
         6   8 -5.197739E+06  2.064440E+03 -1.642594E+04 -2.358160E+02  1.527679E+04 -5.849639E-03
         6   9 -5.199945E+06 -9.212538E+03 -3.135476E+04 -1.169380E+03  2.364228E+04 -4.489204E-02
         6  10 -5.199903E+06  2.814134E+02 -1.024268E+04 -6.977583E+02 -3.210182E-11  7.533581E-10
         6  11 -5.197739E+06  2.064377E+03 -1.642638E+04  2.358160E+02  3.595289E-09  1.141046E-09
         6  12 -5.199946E+06 -9.212690E+03 -3.135582E+04  1.169380E+03 -9.183344E-10  1.612081E-09
         6  13 -5.199903E+06  2.814124E+02 -1.024268E+04 -1.659600E-08 -3.358738E-10  5.178842E-10
         6  14 -5.197739E+06  2.064376E+03 -1.642638E+04 -6.895231E-09 -4.768719E-09  6.095242E-10
         6  15 -5.199946E+06 -9.212692E+03 -3.135582E+04  1.141976E-08 -1.292511E-09  9.720139E-10
         6  16 -5.199903E+06  2.814134E+02 -1.024268E+04  6.977583E+02  9.388686E-10  5.488302E-10
         6  17 -5.197739E+06  2.064377E+03 -1.642638E+04 -2.358160E+02 -1.915816E-09  6.151777E-10
         6  18 -5.199946E+06 -9.212690E+03 -3.135582E+04 -1.169380E+03  3.242893E-09 -6.931474E-11
         6  19 -5.199903E+06  2.814263E+02 -1.024259E+04 -6.977583E+02 -6.911097E+03  7.830284E-03
         6  20 -5.197739E+06  2.064440E+03 -1.642594E+04  2.358160E+02 -1.527679E+04 -5.849634E-03
         6  21 -5.199945E+06 -9.212538E+03 -3.135476E+04  1.169380E+03 -2.364228E+04 -4.489203E-02
         6  22 -5.199903E+06  2.814254E+02 -1.024259E+04  5.217543E-08 -6.911097E+03  1.144514E-09
         6  23 -5.197739E+06  2.064440E+03 -1.642594E+04  5.329971E-08 -1.527679E+04 -5.577582E-10
         6  24 -5.199945E+06 -9.212541E+03 -3.135476E+04  6.731243E-08 -2.364228E+04  8.653863E-10
         6  25 -5.199903E+06  2.814263E+02 -1.024259E+04  6.977583E+02 -6.911097E+03 -7.830280E-03
         6  26 -5.197739E+06  2.064440E+03 -1.642594E+04 -2.358160E+02 -1.527679E+04  5.849636E-03
         6  27 -5.199945E+06 -9.212538E+03 -3.135476E+04 -1.169380E+03 -2.364228E+04  4.489204E-02
         7   1 -5.204909E+06  2.288314E+03 -3.920884E+04 -4.644242E+03  2.997541E+04 -2.260517E-01
         7   2 -5.191575E+06  1.418124E+04 -6.339892E+04  2.132431E+03  6.308051E+04  2.184181E-01
         7   3 -5.205126E+06 -6.390063E+04 -1.317656E+05  8.909189E+03  9.618553E+04  1.391462E+00
         7   4 -5.204909E+06  2.288273E+03 -3.920885E+04  3.565873E-08  2.997541E+04  6.203293E-10
         7   5 -5.191575E+06  1.418123E+04 -6.339892E+04 -5.136353E-08  6.308051E+04  6.303925E-10
         7   6 -5.205126E+06 -6.390078E+04 -1.317657E+05 -1.803590E-08  9.618553E+04 -3.979127E-10
         7   7 -5.204909E+06  2.288314E+03 -3.920884E+04  4.644242E+03  2.997541E+04  2.260517E-01
         7   8 -5.191575E+06  1.418124E+04 -6.339892E+04 -2.132431E+03  6.308051E+04 -2.184181E-01
         7   9 -5.205126E+06 -6.390063E+04 -1.317656E+05 -8.909189E+03  9.618553E+04 -1.391462E+00
         7  10 -5.204910E+06  2.288070E+03 -3.921054E+04 -4.644242E+03 -8.951453E-10  1.215138E-09
         7  11 -5.191579E+06  1.418016E+04 -6.340646E+04  2.132431E+03 -6.047501E-09  7.518198E-11
         7  12 -5.205136E+06 -6.390314E+04 -1.317832E+05  8.909189E+03 -2.846658E-09 -9.199019E-10
         7  13 -5.204910E+06  2.288029E+03 -3.921055E+04  1.258993E-09  2.484015E-09  8.418527E-10
         7  14 -5.191579E+06  1.418016E+04 -6.340646E+04 -3.417794E-08 -3.458322E-09 -5.453758E-10
         7  15 -5.205136E+06 -6.390329E+04 -1.317832E+05 -2.662624E-08  2.442187E-09 -5.831840E-10
         7  16 -5.204910E+06  2.288070E+03 -3.921054E+04  4.644242E+03  1.902796E-09  1.819809E-09
         7  17 -5.191579E+06  1.418016E+04 -6.340646E+04 -2.132431E+03  2.334770E-09 -2.559240E-11
         7  18 -5.205136E+06 -6.390314E+04 -1.317832E+05 -8.909189E+03  1.405988E-09 -5.276634E-10
         7  19 -5.204909E+06  2.288314E+03 -3.920884E+04 -4.644242E+03 -2.997541E+04  2.260517E-01
         7  20 -5.191575E+06  1.418124E+04 -6.339892E+04  2.132431E+03 -6.308051E+04 -2.184181E-01
         7  21 -5.205126E+06 -6.390063E+04 -1.317656E+05  8.909189E+03 -9.618553E+04 -1.391462E+00
         7  22 -5.204909E+06  2.288273E+03 -3.920885E+04  1.216224E-07 -2.997541E+04  8.773177E-10
         7  23 -5.191575E+06  1.418123E+04 -6.339892E+04 -1.698705E-08 -6.308051E+04 -5.636092E-10
         7  24 -5.205126E+06 -6.390078E+04 -1.317657E+05 -5.457607E-08 -9.618553E+04 -1.961150E-10
         7  25 -5.204909E+06  2.288314E+03 -3.920884E+04  4.644242E+03 -2.997541E+04 -2.260517E-01
         7  26 -5.191575E+06  1.418124E+04 -6.339892E+04 -2.132431E+03 -6.308051E+04  2.184181E-01
         7  27 -5.205126E+06 -6.390063E+04 -1.317656E+05 -8.909189E+03 -9.618553E+04  1.391462E+00
         8   1 -5.237206E+06  1.618307E+04 -1.595149E+05 -3.122744E+04  1.222290E+05 -6.198081E+00
         8   2 -5.151486E+06  9.742531E+04 -2.447466E+05  1.673357E+04  2.556847E+05  6.946752E+00
         8   3 -5.238359E+06 -4.404399E+05 -5.721189E+05  6.468881E+04  3.891458E+05  4.087550E+01
         8   4 -5.237207E+06  1.618122E+04 -1.595152E+05  9.287722E-08  1.222290E+05 -1.142130E-09
         8   5 -5.151486E+06  9.742478E+04 -2.447467E+05  2.629167E-08  2.556847E+05  5.546608E-10
         8   6 -5.238364E+06 -4.404478E+05 -5.721200E+05  1.771212E-08  3.891458E+05 -2.742162E-10
         8   7 -5.237206E+06  1.618307E+04 -1.595149E+05  3.122744E+04  1.222290E+05  6.198081E+00
         8   8 -5.151486E+06  9.742531E+04 -2.447466E+05 -1.673357E+04  2.556847E+05 -6.946752E+00
         8   9 -5.238359E+06 -4.404399E+05 -5.721189E+05 -6.468881E+04  3.891458E+05 -4.087550E+01
         8  10 -5.237222E+06  1.617902E+04 -1.595432E+05 -3.122744E+04  5.931810E-10  4.453202E-10
         8  11 -5.151557E+06  9.740757E+04 -2.448705E+05  1.673357E+04  1.373233E-09  8.242430E-10
         8  12 -5.238523E+06 -4.404809E+05 -5.724059E+05  6.468880E+04  2.106557E-09  9.036178E-11
         8  13 -5.237223E+06  1.617717E+04 -1.595435E+05  5.851581E-08  1.340434E-10 -1.654467E-10
         8  14 -5.151557E+06  9.740704E+04 -2.448706E+05  5.028029E-10  2.316084E-10  4.104506E-10
         8  15 -5.238527E+06 -4.404889E+05 -5.724070E+05 -4.462497E-08 -1.803529E-09  2.709410E-10
         8  16 -5.237222E+06  1.617902E+04 -1.595432E+05  3.122744E+04  2.234225E-09 -4.032295E-10
         8  17 -5.151557E+06  9.740757E+04 -2.448705E+05 -1.673357E+04 -6.903201E-09 -3.375467E-10
         8  18 -5.238523E+06 -4.404809E+05 -5.724059E+05 -6.468880E+04  1.074502E-09  7.772392E-10
         8  19 -5.237206E+06  1.618307E+04 -1.595149E+05 -3.122744E+04 -1.222290E+05  6.198081E+00
         8  20 -5.151486E+06  9.742531E+04 -2.447466E+05  1.673357E+04 -2.556847E+05 -6.946752E+00
         8  21 -5.238359E+06 -4.404399E+05 -5.721189E+05  6.468881E+04 -3.891458E+05 -4.087550E+01
         8  22 -5.237207E+06  1.618122E+04 -1.595152E+05  1.101261E-07 -1.222290E+05  6.747364E-10
         8  23 -5.151486E+06  9.742478E+04 -2.447467E+05 -2.529964E-08 -2.556847E+05  3.492397E-10
         8  24 -5.238364E+06 -4.404478E+05 -5.721200E+05  1.552930E-08 -3.891458E+05  8.586348E-10
         8  25 -5.237206E+06  1.618307E+04 -1.595149E+05  3.122744E+04 -1.222290E+05 -6.198081E+00
         8  26 -5.151486E+06  9.742531E+04 -2.447466E+05 -1.673357E+04 -2.556847E+05  6.946752E+00
         8  27 -5.238359E+06 -4.404399E+05 -5.721189E+05 -6.468881E+04 -3.891458E+05  4.087550E+01
         9   1  2.255247E+06  8.060537E+06  2.147239E+06 -1.552395E+06  1.012260E+05  8.370887E+05
         9   2  1.791793E+06  6.879007E+06  1.438441E+06 -1.409103E+06  3.399287E+05  3.917527E+05
         9   3  1.472643E+06  5.794921E+06  1.054057E+06 -1.450282E+06  3.964956E+05 -5.249269E+04
         9   4  1.557890E+05 -4.922716E+05  1.651411E+05 -1.429330E+06  1.033848E+05  1.120179E+05
         9   5  4.999271E+04 -5.032999E+05  8.517877E+04 -1.337377E+06  3.414694E+05  6.980653E+04
         9   6  1.988553E+04 -4.868901E+05  5.211081E+04 -1.429843E+06  3.964917E+05  2.775347E+04
         9   7 -1.948475E+06 -8.976915E+06 -1.819907E+06 -1.307842E+06  1.052829E+05 -6.032406E+05
         9   8 -1.694823E+06 -7.832830E+06 -1.269930E+06 -1.266425E+06  3.429499E+05 -2.484478E+05
         9   9 -1.434838E+06 -6.729677E+06 -9.508430E+05 -1.409533E+06  3.964929E+05  1.072216E+05
         9  10  2.255051E+06  8.059790E+06  2.145919E+06 -1.552463E+06 -5.419583E-09 -1.711029E-10
         9  11  1.791628E+06  6.878812E+06  1.437937E+06 -1.409210E+06 -4.576218E-09 -1.369373E-10
         9  12  1.472473E+06  5.794876E+06  1.053757E+06 -1.450266E+06  1.796822E-09 -2.909102E-10
         9  13  1.557742E+05 -4.922880E+05  1.650973E+05 -1.429339E+06 -2.194559E-09 -6.477227E-11
         9  14  4.986616E+04 -5.033364E+05  8.495031E+04 -1.337397E+06  2.264298E-09  4.524330E-11
         9  15  1.971652E+04 -4.869331E+05  5.181390E+04 -1.429852E+06  3.129357E-09  1.048061E-10
         9  16 -1.948586E+06 -8.977313E+06 -1.820621E+06 -1.307791E+06  3.163241E-09  8.333052E-11
         9  17 -1.694966E+06 -7.832928E+06 -1.270268E+06 -1.266356E+06  1.730989E-09  1.889949E-11
         9  18 -1.435010E+06 -6.729731E+06 -9.511606E+05 -1.409567E+06 -6.969352E-10  6.157508E-10
         9  19  2.255247E+06  8.060537E+06  2.147239E+06 -1.552395E+06 -1.012260E+05 -8.370887E+05
         9  20  1.791793E+06  6.879007E+06  1.438441E+06 -1.409103E+06 -3.399287E+05 -3.917527E+05
         9  21  1.472643E+06  5.794921E+06  1.054057E+06 -1.450282E+06 -3.964956E+05  5.249269E+04
         9  22  1.557890E+05 -4.922716E+05  1.651411E+05 -1.429330E+06 -1.033848E+05 -1.120179E+05
         9  23  4.999271E+04 -5.032999E+05  8.517877E+04 -1.337377E+06 -3.414694E+05 -6.980653E+04
         9  24  1.988553E+04 -4.868901E+05  5.211081E+04 -1.429843E+06 -3.964917E+05 -2.775347E+04
         9  25 -1.948475E+06 -8.976915E+06 -1.819907E+06 -1.307842E+06 -1.052829E+05  6.032406E+05
         9  26 -1.694823E+06 -7.832830E+06 -1.269930E+06 -1.266425E+06 -3.429499E+05  2.484478E+05
         9  27 -1.434838E+06 -6.729677E+06 -9.508430E+05 -1.409533E+06 -3.964929E+05 -1.072216E+05
        10   1  1.301059E+06  5.071963E+06  9.072456E+05 -1.458425E+06  3.679648E+05 -6.412131E+04
        10   2  1.028609E+06  3.932875E+06  6.874317E+05 -1.350302E+06  3.187370E+05 -1.312120E+05
        10   3  7.783917E+05  2.809108E+06  5.165742E+05 -1.439836E+06  2.471947E+05 -1.984191E+05
        10   4  1.880971E+04 -4.901963E+05  4.331188E+04 -1.432798E+06  3.678374E+05  2.025026E+04
        10   5  1.525506E+04 -4.913196E+05  3.582100E+04 -1.333929E+06  3.181900E+05  2.272608E+03
        10   6  2.555565E+04 -4.868298E+05  4.338259E+04 -1.432797E+06  2.461460E+05 -1.593619E+04
        10   7 -1.264944E+06 -6.021605E+06 -8.213187E+05 -1.407337E+06  3.677160E+05  1.038985E+05
        10   8 -9.990004E+05 -4.895852E+06 -6.160745E+05 -1.317632E+06  3.176473E+05  1.348494E+05
        10   9 -7.277571E+05 -3.771752E+06 -4.298513E+05 -1.425769E+06  2.450974E+05  1.656225E+05
        10  10  1.300913E+06  5.071923E+06  9.069838E+05 -1.458406E+06  3.799629E-09 -6.570248E-08
        10  11  1.028496E+06  3.932830E+06  6.872090E+05 -1.350268E+06  7.581075E-09 -1.352341E-09
        10  12  7.783158E+05  2.809049E+06  5.163863E+05 -1.439796E+06  1.243977E-09  6.248832E-08
        10  13  1.866432E+04 -4.902330E+05  4.305684E+04 -1.432804E+06  5.520144E-10  3.614435E-12
        10  14  1.514637E+04 -4.913468E+05  3.563078E+04 -1.333930E+06  4.559524E-09 -1.895333E-10
        10  15  2.549055E+04 -4.868463E+05  4.326834E+04 -1.432794E+06  1.948303E-09 -3.961824E-11
        10  16 -1.265092E+06 -6.021653E+06 -8.215935E+05 -1.407368E+06 -4.454572E-09  6.506276E-08
        10  17 -9.991138E+05 -4.895899E+06 -6.162989E+05 -1.317667E+06 -3.265214E-09  1.197425E-09
        10  18 -7.278291E+05 -3.771798E+06 -4.300164E+05 -1.425802E+06 -7.552187E-10 -6.209357E-08
        10  19  1.301059E+06  5.071963E+06  9.072456E+05 -1.458425E+06 -3.679648E+05  6.412131E+04
        10  20  1.028609E+06  3.932875E+06  6.874317E+05 -1.350302E+06 -3.187370E+05  1.312120E+05
        10  21  7.783917E+05  2.809108E+06  5.165742E+05 -1.439836E+06 -2.471947E+05  1.984191E+05
        10  22  1.880971E+04 -4.901963E+05  4.331188E+04 -1.432798E+06 -3.678374E+05 -2.025026E+04
        10  23  1.525506E+04 -4.913196E+05  3.582100E+04 -1.333929E+06 -3.181900E+05 -2.272608E+03
        10  24  2.555565E+04 -4.868298E+05  4.338259E+04 -1.432797E+06 -2.461460E+05  1.593619E+04
        10  25 -1.264944E+06 -6.021605E+06 -8.213187E+05 -1.407337E+06 -3.677160E+05 -1.038985E+05
        10  26 -9.990004E+05 -4.895852E+06 -6.160745E+05 -1.317632E+06 -3.176473E+05 -1.348494E+05
        10  27 -7.277571E+05 -3.771752E+06 -4.298513E+05 -1.425769E+06 -2.450974E+05 -1.656225E+05
        11   1  6.206508E+05  2.105884E+06  4.189521E+05 -1.442685E+06  1.978890E+05 -2.063643E+05
        11   2  3.963110E+05  9.649143E+05  2.906022E+05 -1.287073E+06  1.137189E+05 -2.545536E+05
        11   3  2.441792E+05 -1.521917E+05  2.111374E+05 -1.330699E+06  2.764202E+04 -3.027459E+05
        11   4  3.006845E+04 -4.824619E+05  5.186442E+04 -1.433167E+06  1.967433E+05 -2.347095E+04
        11   5  6.466048E+04 -4.927679E+05  8.557531E+04 -1.333202E+06  1.124872E+05 -6.759685E+04
        11   6  1.708306E+05 -4.813058E+05  1.652561E+05 -1.432402E+06  2.633121E+04 -1.118003E+05
        11   7 -5.607977E+05 -3.063971E+06 -3.151926E+05 -1.423673E+06  1.955999E+05  1.586949E+05
        11   8 -2.670570E+05 -1.948218E+06 -1.193471E+05 -1.379213E+06  1.112257E+05  1.189407E+05
        11   9  9.753623E+04 -8.102087E+05  1.195161E+05 -1.534049E+06  2.495733E+04  7.904848E+04
        11  10  6.205975E+05  2.105828E+06  4.187992E+05 -1.442653E+06 -4.400831E-10 -2.605637E-09
        11  11  3.962798E+05  9.648414E+05  2.904566E+05 -1.287050E+06 -3.435347E-09  1.598166E-09
        11  12  2.441538E+05 -1.522903E+05  2.109638E+05 -1.330692E+06  7.365790E-10  5.342622E-09
        11  13  3.002677E+04 -4.824729E+05  5.179072E+04 -1.433164E+06 -6.731182E-10 -7.543665E-11
        11  14  6.464570E+04 -4.927761E+05  8.554302E+04 -1.333196E+06  1.203580E-09  1.406103E-10
        11  15  1.708265E+05 -4.813194E+05  1.652313E+05 -1.432400E+06 -1.864182E-09  1.455840E-10
        11  16 -5.608457E+05 -3.064008E+06 -3.153124E+05 -1.423699E+06  6.645342E-09  2.413460E-09
        11  17 -2.670741E+05 -1.948237E+06 -1.193972E+05 -1.379224E+06  1.519905E-09 -1.313573E-09
        11  18  9.753387E+04 -8.102156E+05  1.195032E+05 -1.534050E+06 -6.222874E-10 -5.319444E-09
        11  19  6.206508E+05  2.105884E+06  4.189521E+05 -1.442685E+06 -1.978890E+05  2.063643E+05
        11  20  3.963110E+05  9.649143E+05  2.906022E+05 -1.287073E+06 -1.137189E+05  2.545536E+05
        11  21  2.441792E+05 -1.521917E+05  2.111374E+05 -1.330699E+06 -2.764202E+04  3.027459E+05
        11  22  3.006845E+04 -4.824619E+05  5.186442E+04 -1.433167E+06 -1.967433E+05  2.347095E+04
        11  23  6.466048E+04 -4.927679E+05  8.557531E+04 -1.333202E+06 -1.124872E+05  6.759685E+04
        11  24  1.708306E+05 -4.813058E+05  1.652561E+05 -1.432402E+06 -2.633121E+04  1.118003E+05
        11  25 -5.607977E+05 -3.063971E+06 -3.151926E+05 -1.423673E+06 -1.955999E+05 -1.586949E+05
        11  26 -2.670570E+05 -1.948218E+06 -1.193471E+05 -1.379213E+06 -1.112257E+05 -1.189407E+05
        11  27  9.753623E+04 -8.102087E+05  1.195161E+05 -1.534049E+06 -2.495733E+04 -7.904848E+04
        12   1 -5.984467E+06 -1.774211E+06 -1.156566E+06 -2.076447E+06 -6.626373E+05 -2.446377E+05
        12   2 -5.779437E+06 -7.840713E+05 -5.286294E+05 -2.227125E+06 -4.268622E+05 -1.498835E+05
        12   3 -5.950699E+06 -8.479900E+05 -3.573375E+05 -2.157202E+06 -1.880943E+05 -6.308847E+04
        12   4 -5.677108E+06 -1.514800E+06 -1.043141E+06 -1.846103E+06 -6.600637E+05 -2.438671E+05
        12   5 -5.436015E+06 -6.165478E+05 -4.276340E+05 -2.095134E+06 -4.265181E+05 -1.497880E+05