
 stresses (elem, integ.pnt.,sxx,syy,szz,sxy,sxz,syz) for set ELALL and time  0.1000000E+01

         1   1 -2.447680E+06 -1.347499E+05 -1.647021E+05 -5.751474E+04 -1.128073E+05  1.049003E+01
         1   2 -2.427306E+06  7.076989E+03 -7.393776E+04 -1.882308E+04 -7.340458E+04  2.233919E+00
         1   3 -2.447514E+06  7.305689E+03 -4.429642E+04  1.987071E+04 -3.400158E+04 -1.092397E+00
         1   4 -2.447683E+06 -1.347562E+05 -1.647030E+05  5.214316E-09 -1.128073E+05  8.334487E-10
         1   5 -2.427306E+06  7.076321E+03 -7.393786E+04 -9.280414E-10 -7.340458E+04  2.310726E-09
         1   6 -2.447515E+06  7.304944E+03 -4.429653E+04 -1.299667E-08 -3.400158E+04  1.516468E-09
         1   7 -2.447680E+06 -1.347499E+05 -1.647021E+05  5.751474E+04 -1.128073E+05 -1.049003E+01
         1   8 -2.427306E+06  7.076989E+03 -7.393776E+04  1.882308E+04 -7.340458E+04 -2.233919E+00
         1   9 -2.447514E+06  7.305689E+03 -4.429642E+04 -1.987071E+04 -3.400158E+04  1.092397E+00
         1  10 -2.447693E+06 -1.347534E+05 -1.647261E+05 -5.751474E+04 -4.360172E-10  1.769272E-10
         1  11 -2.427312E+06  7.075535E+03 -7.394793E+04 -1.882308E+04 -8.788901E-10  3.742944E-10
         1  12 -2.447515E+06  7.305377E+03 -4.429860E+04  1.987071E+04 -3.880346E-10  4.889300E-10
         1  13 -2.447697E+06 -1.347596E+05 -1.647270E+05 -3.300163E-09  1.679432E-11  1.781180E-10
         1  14 -2.427312E+06  7.074867E+03 -7.394802E+04  1.259702E-09 -4.317050E-09  5.855847E-10
         1  15 -2.447516E+06  7.304632E+03 -4.429871E+04 -1.356399E-08 -2.834010E-09  4.629827E-10
         1  16 -2.447693E+06 -1.347534E+05 -1.647261E+05  5.751474E+04 -2.730015E-11  1.824087E-10
         1  17 -2.427312E+06  7.075535E+03 -7.394793E+04  1.882308E+04  8.393707E-11  6.005757E-10
         1  18 -2.447515E+06  7.305377E+03 -4.429860E+04 -1.987071E+04 -6.433538E-10  4.644462E-10
         1  19 -2.447680E+06 -1.347499E+05 -1.647021E+05 -5.751474E+04  1.128073E+05 -1.049003E+01
         1  20 -2.427306E+06  7.076989E+03 -7.393776E+04 -1.882308E+04  7.340458E+04 -2.233919E+00
         1  21 -2.447514E+06  7.305689E+03 -4.429642E+04  1.987071E+04  3.400158E+04  1.092397E+00
         1  22 -2.447683E+06 -1.347562E+05 -1.647030E+05  5.392791E-09  1.128073E+05 -4.942984E-10
         1  23 -2.427306E+06  7.076321E+03 -7.393786E+04 -9.487359E-09  7.340458E+04 -1.263757E-09
         1  24 -2.447515E+06  7.304944E+03 -4.429653E+04 -1.468823E-08  3.400158E+04 -6.633896E-10
         1  25 -2.447680E+06 -1.347499E+05 -1.647021E+05  5.751474E+04  1.128073E+05  1.049003E+01
         1  26 -2.427306E+06  7.076989E+03 -7.393776E+04  1.882308E+04  7.340458E+04  2.233919E+00
         1  27 -2.447514E+06  7.305689E+03 -4.429642E+04 -1.987071E+04  3.400158E+04 -1.092397E+00
         2   1 -2.439365E+06 -9.321464E+03 -3.555323E+04 -3.207203E+03 -2.754119E+04  1.428142E-01
         2   2 -2.437470E+06  6.474761E+02 -1.890993E+04 -7.900368E+02 -1.800278E+04  2.299581E-02
         2   3 -2.439343E+06  5.378394E+02 -1.101406E+04  1.627118E+03 -8.464275E+03 -2.226753E-02
         2   4 -2.439365E+06 -9.321484E+03 -3.555324E+04 -9.468126E-09 -2.754119E+04  2.181552E-10
         2   5 -2.437470E+06  6.474749E+02 -1.890993E+04 -6.797772E-09 -1.800278E+04 -1.168948E-09
         2   6 -2.439343E+06  5.378344E+02 -1.101406E+04  1.504371E-09 -8.464275E+03 -1.373797E-09
         2   7 -2.439365E+06 -9.321464E+03 -3.555323E+04  3.207203E+03 -2.754119E+04 -1.428142E-01
         2   8 -2.437470E+06  6.474761E+02 -1.890993E+04  7.900368E+02 -1.800278E+04 -2.299581E-02
         2   9 -2.439343E+06  5.378394E+02 -1.101406E+04 -1.627118E+03 -8.464275E+03  2.226753E-02
         2  10 -2.439366E+06 -9.321669E+03 -3.555466E+04 -3.207203E+03  4.478221E-11  3.976680E-10
         2  11 -2.437470E+06  6.473887E+02 -1.891054E+04 -7.900368E+02  1.870929E-09  5.518481E-10
         2  12 -2.439343E+06  5.378201E+02 -1.101419E+04  1.627118E+03 -6.229605E-10  3.952799E-10
         2  13 -2.439366E+06 -9.321688E+03 -3.555467E+04 -2.452893E-08 -6.467502E-09  3.712036E-10
         2  14 -2.437470E+06  6.473875E+02 -1.891054E+04 -1.116027E-08 -9.383879E-10  2.913157E-10
         2  15 -2.439343E+06  5.378151E+02 -1.101419E+04  2.233626E-09  1.502311E-10 -1.029367E-10
         2  16 -2.439366E+06 -9.321669E+03 -3.555466E+04  3.207203E+03 -3.154886E-09  1.587405E-10
         2  17 -2.437470E+06  6.473887E+02 -1.891054E+04  7.900368E+02  1.639445E-10 -5.123559E-11
         2  18 -2.439343E+06  5.378201E+02 -1.101419E+04 -1.627118E+03  7.107762E-10 -2.660076E-10
         2  19 -2.439365E+06 -9.321464E+03 -3.555323E+04 -3.207203E+03  2.754119E+04 -1.428142E-01
         2  20 -2.437470E+06  6.474761E+02 -1.890993E+04 -7.900368E+02  1.800278E+04 -2.299581E-02
         2  21 -2.439343E+06  5.378394E+02 -1.101406E+04  1.627118E+03  8.464275E+03  2.226753E-02
         2  22 -2.439365E+06 -9.321484E+03 -3.555324E+04 -1.165354E-08  2.754119E+04  5.543039E-10
         2  23 -2.437470E+06  6.474749E+02 -1.890993E+04 -1.549963E-08  1.800278E+04  1.637562E-09
         2  24 -2.439343E+06  5.378344E+02 -1.101406E+04  9.958479E-09  8.464275E+03  1.176388E-09
         2  25 -2.439365E+06 -9.321464E+03 -3.555323E+04  3.207203E+03  2.754119E+04  1.428142E-01
         2  26 -2.437470E+06  6.474761E+02 -1.890993E+04  7.900368E+02  1.800278E+04  2.299581E-02
         2  27 -2.439343E+06  5.378394E+02 -1.101406E+04 -1.627118E+03  8.464275E+03 -2.226753E-02
         3   1 -2.438617E+06 -5.988093E+02 -8.510021E+03 -1.137552E+01 -6.750297E+03  1.241519E-04
         3   2 -2.438368E+06  8.311505E+01 -4.847287E+03  7.516800E+01 -4.343633E+03 -5.278974E-04
         3   3 -2.438613E+06  4.460828E+01 -2.936062E+03  1.617101E+02 -1.936998E+03 -5.064415E-04
         3   4 -2.438617E+06 -5.988093E+02 -8.510021E+03  1.060583E-08 -6.750297E+03 -1.039829E-09
         3   5 -2.438368E+06  8.311504E+01 -4.847287E+03  9.931957E-09 -4.343633E+03 -5.678369E-10
         3   6 -2.438613E+06  4.460824E+01 -2.936062E+03  8.970989E-11 -1.936998E+03 -4.205262E-10
         3   7 -2.438617E+06 -5.988093E+02 -8.510021E+03  1.137552E+01 -6.750297E+03 -1.241542E-04
         3   8 -2.438368E+06  8.311505E+01 -4.847287E+03 -7.516800E+01 -4.343633E+03  5.278959E-04
         3   9 -2.438613E+06  4.460828E+01 -2.936062E+03 -1.617101E+02 -1.936998E+03  5.064406E-04
         3  10 -2.438617E+06 -5.988215E+02 -8.510107E+03 -1.137552E+01 -3.190952E-09 -1.943958E-11
         3  11 -2.438368E+06  8.310996E+01 -4.847323E+03  7.516800E+01  1.172685E-09 -2.384634E-10
         3  12 -2.438613E+06  4.460727E+01 -2.936069E+03  1.617101E+02  1.168538E-09 -1.200128E-09
         3  13 -2.438617E+06 -5.988215E+02 -8.510107E+03  2.366379E-08 -1.121589E-09  4.204491E-11
         3  14 -2.438368E+06  8.310995E+01 -4.847323E+03  1.416215E-08 -2.118233E-09  2.602735E-10
         3  15 -2.438613E+06  4.460722E+01 -2.936069E+03  3.609795E-09 -1.748358E-09 -1.004667E-09
         3  16 -2.438617E+06 -5.988215E+02 -8.510107E+03  1.137552E+01  4.023820E-09  1.764484E-10
         3  17 -2.438368E+06  8.310996E+01 -4.847323E+03 -7.516800E+01 -2.569638E-09  8.664232E-10
         3  18 -2.438613E+06  4.460727E+01 -2.936069E+03 -1.617101E+02 -1.805211E-09 -8.793666E-10
         3  19 -2.438617E+06 -5.988093E+02 -8.510021E+03 -1.137552E+01  6.750297E+03 -1.241516E-04
         3  20 -2.438368E+06  8.311505E+01 -4.847287E+03  7.516800E+01  4.343633E+03  5.278978E-04
         3  21 -2.438613E+06  4.460828E+01 -2.936062E+03  1.617101E+02  1.936998E+03  5.064397E-04
         3  22 -2.438617E+06 -5.988093E+02 -8.510021E+03  1.518871E-08  6.750297E+03  1.063508E-09
         3  23 -2.438368E+06  8.311504E+01 -4.847287E+03  3.342096E-09  4.343633E+03  1.009097E-09
         3  24 -2.438613E+06  4.460824E+01 -2.936062E+03 -1.304587E-10  1.936998E+03 -1.543724E-09
         3  25 -2.438617E+06 -5.988093E+02 -8.510021E+03  1.137552E+01  6.750297E+03  1.241537E-04
         3  26 -2.438368E+06  8.311505E+01 -4.847287E+03 -7.516800E+01  4.343633E+03 -5.278953E-04
         3  27 -2.438613E+06  4.460828E+01 -2.936062E+03 -1.617101E+02  1.936998E+03 -5.064430E-04
         4   1 -2.438530E+06 -2.582861E+01 -2.355604E+03  4.473474E+01 -1.461458E+03 -1.057045E-04
         4   2 -2.438469E+06  2.029796E+01 -1.677849E+03  2.016740E+01 -6.323427E+02 -2.061787E-05
         4   3 -2.438530E+06  7.610024E+00 -1.556185E+03 -4.400294E+00  1.967856E+02 -1.398554E-06
         4   4 -2.438530E+06 -2.582861E+01 -2.355604E+03 -4.850118E-10 -1.461458E+03  2.186653E-10
         4   5 -2.438469E+06  2.029796E+01 -1.677849E+03 -6.549024E-09 -6.323427E+02  1.357425E-09
         4   6 -2.438530E+06  7.610024E+00 -1.556185E+03  4.626813E-09  1.967856E+02  7.041482E-10
         4   7 -2.438530E+06 -2.582861E+01 -2.355604E+03 -4.473474E+01 -1.461458E+03  1.057045E-04
         4   8 -2.438469E+06  2.029796E+01 -1.677849E+03 -2.016740E+01 -6.323427E+02  2.061967E-05
         4   9 -2.438530E+06  7.610024E+00 -1.556185E+03  4.400294E+00  1.967856E+02  1.400387E-06
         4  10 -2.438530E+06 -2.582918E+01 -2.355608E+03  4.473474E+01 -1.897432E-09 -1.087603E-09
         4  11 -2.438469E+06  2.029786E+01 -1.677850E+03  2.016740E+01 -2.731135E-09  4.357735E-11
         4  12 -2.438530E+06  7.610014E+00 -1.556185E+03 -4.400294E+00  9.288574E-10  1.248415E-09
         4  13 -2.438530E+06 -2.582919E+01 -2.355608E+03 -2.267936E-10  3.151124E-09 -1.173933E-09
         4  14 -2.438469E+06  2.029785E+01 -1.677850E+03 -3.191116E-09  2.295623E-09  1.012795E-10
         4  15 -2.438530E+06  7.610014E+00 -1.556185E+03 -6.147042E-09 -6.829526E-10  6.920552E-10
         4  16 -2.438530E+06 -2.582918E+01 -2.355608E+03 -4.473474E+01  3.900042E-11 -1.199133E-09
         4  17 -2.438469E+06  2.029786E+01 -1.677850E+03 -2.016740E+01 -1.057894E-09  1.630780E-10
         4  18 -2.438530E+06  7.610014E+00 -1.556185E+03  4.400294E+00  1.476472E-09  7.069736E-11
         4  19 -2.438530E+06 -2.582861E+01 -2.355604E+03  4.473474E+01  1.461458E+03  1.057025E-04
         4  20 -2.438469E+06  2.029796E+01 -1.677849E+03  2.016740E+01  6.323427E+02  2.061775E-05
         4  21 -2.438530E+06  7.610024E+00 -1.556185E+03 -4.400294E+00 -1.967856E+02  1.401223E-06
         4  22 -2.438530E+06 -2.582861E+01 -2.355604E+03  2.166459E-09  1.461458E+03 -2.469641E-09
         4  23 -2.438469E+06  2.029796E+01 -1.677849E+03 -4.138974E-09  6.323427E+02 -1.263140E-09
         4  24 -2.438530E+06  7.610024E+00 -1.556185E+03  4.626813E-09 -1.967856E+02  7.112727E-10
         4  25 -2.438530E+06 -2.582861E+01 -2.355604E+03 -4.473474E+01  1.461458E+03 -1.057074E-04
         4  26 -2.438469E+06  2.029796E+01 -1.677849E+03 -2.016740E+01  6.323427E+02 -2.062049E-05
         4  27 -2.438530E+06  7.610024E+00 -1.556185E+03  4.400294E+00 -1.967856E+02 -1.400255E-06
         5   1 -2.438541E+06  9.170265E+00 -1.674733E+03 -2.659511E+01  4.887643E+02 -2.101624E-05
         5   2 -2.438455E+06  2.861025E+01 -2.319147E+03 -5.698158E+01  1.635052E+03 -1.506377E-04
         5   3 -2.438543E+06 -4.572559E+01 -3.735487E+03 -8.736809E+01  2.781339E+03 -3.928889E-04
         5   4 -2.438541E+06  9.170264E+00 -1.674733E+03 -9.657423E-10  4.887643E+02 -2.534207E-10
         5   5 -2.438455E+06  2.861024E+01 -2.319147E+03 -5.139250E-09  1.635052E+03 -1.062666E-09
         5   6 -2.438543E+06 -4.572560E+01 -3.735487E+03  1.277712E-08  2.781339E+03 -1.056173E-09
         5   7 -2.438541E+06  9.170265E+00 -1.674733E+03  2.659511E+01  4.887643E+02  2.101599E-05
         5   8 -2.438455E+06  2.861025E+01 -2.319147E+03  5.698158E+01  1.635052E+03  1.506354E-04
         5   9 -2.438543E+06 -4.572559E+01 -3.735487E+03  8.736809E+01  2.781339E+03  3.928877E-04
         5  10 -2.438541E+06  9.170201E+00 -1.674733E+03 -2.659511E+01 -3.601447E-10  7.820319E-10
         5  11 -2.438455E+06  2.860953E+01 -2.319152E+03 -5.698158E+01 -3.428212E-10 -7.603112E-10
         5  12 -2.438543E+06 -4.572767E+01 -3.735502E+03 -8.736809E+01 -7.118636E-10  5.183380E-11
         5  13 -2.438541E+06  9.170199E+00 -1.674733E+03 -1.184876E-08 -3.141699E-09  4.988090E-10
         5  14 -2.438455E+06  2.860952E+01 -2.319152E+03  1.272163E-09 -3.083951E-09 -2.608888E-11
         5  15 -2.438543E+06 -4.572769E+01 -3.735502E+03  1.117375E-08  3.747024E-10 -4.289768E-11
         5  16 -2.438541E+06  9.170201E+00 -1.674733E+03  2.659511E+01 -1.863577E-09  1.796543E-10
         5  17 -2.438455E+06  2.860953E+01 -2.319152E+03  5.698158E+01  3.703712E-10  4.316981E-10
         5  18 -2.438543E+06 -4.572767E+01 -3.735502E+03  8.736809E+01 -3.639824E-10 -1.307554E-10
         5  19 -2.438541E+06  9.170265E+00 -1.674733E+03 -2.659511E+01 -4.887643E+02  2.101851E-05
         5  20 -2.438455E+06  2.861025E+01 -2.319147E+03 -5.698158E+01 -1.635052E+03  1.506370E-04
         5  21 -2.438543E+06 -4.572559E+01 -3.735487E+03 -8.736809E+01 -2.781339E+03  3.928895E-04
         5  22 -2.438541E+06  9.170264E+00 -1.674733E+03 -1.167279E-09 -4.887643E+02  1.199650E-09
         5  23 -2.438455E+06  2.861024E+01 -2.319147E+03 -1.167032E-08 -1.635052E+03  9.893353E-10
         5  24 -2.438543E+06 -4.572560E+01 -3.735487E+03  1.740855E-08 -2.781339E+03  9.813448E-10
         5  25 -2.438541E+06  9.170265E+00 -1.674733E+03  2.659511E+01 -4.887643E+02 -2.101637E-05
         5  26 -2.438455E+06  2.861025E+01 -2.319147E+03  5.698158E+01 -1.635052E+03 -1.506347E-04
         5  27 -2.438543E+06 -4.572559E+01 -3.735487E+03  8.736809E+01 -2.781339E+03 -3.928882E-04
         6   1 -2.438692E+06  7.480755E+01 -4.818020E+03 -2.882233E+02  3.549554E+03 -1.654115E-03
         6   2 -2.438273E+06  1.419584E+02 -8.224987E+03 -1.354661E+02  7.633724E+03 -1.671974E-03
         6   3 -2.438699E+06 -1.034013E+03 -1.460947E+04  1.728926E+01  1.171781E+04  3.275570E-04
         6   4 -2.438692E+06  7.480739E+01 -4.818020E+03 -2.118278E-09  3.549554E+03  2.369562E-11
         6   5 -2.438273E+06  1.419583E+02 -8.224987E+03 -1.002650E-08  7.633724E+03  1.211525E-09
         6   6 -2.438699E+06 -1.034013E+03 -1.460947E+04 -6.097525E-09  1.171781E+04  6.401274E-10
         6   7 -2.438692E+06  7.480755E+01 -4.818020E+03  2.882233E+02  3.549554E+03  1.654115E-03
         6   8 -2.438273E+06  1.419584E+02 -8.224987E+03  1.354661E+02  7.633724E+03  1.671976E-03
         6   9 -2.438699E+06 -1.034013E+03 -1.460947E+04 -1.728926E+01  1.171781E+04 -3.275554E-04
         6  10 -2.438692E+06  7.480415E+01 -4.818043E+03 -2.882233E+02 -2.770839E-09  4.643041E-10
         6  11 -2.438273E+06  1.419427E+02 -8.225097E+03 -1.354661E+02 -3.275196E-09  1.277411E-10
         6  12 -2.438699E+06 -1.034050E+03 -1.460973E+04  1.728926E+01 -5.855954E-10  2.081903E-10
         6  13 -2.438692E+06  7.480399E+01 -4.818043E+03  4.358219E-09  8.220427E-10  1.439589E-10
         6  14 -2.438273E+06  1.419426E+02 -8.225097E+03 -1.001811E-08 -3.448001E-09  1.833701E-10
         6  15 -2.438699E+06 -1.034050E+03 -1.460973E+04 -6.129021E-09 -3.762789E-09  7.907903E-11
         6  16 -2.438692E+06  7.480415E+01 -4.818043E+03  2.882233E+02 -1.155373E-09 -4.567968E-11
         6  17 -2.438273E+06  1.419427E+02 -8.225097E+03  1.354661E+02  6.258289E-11  4.433505E-10
         6  18 -2.438699E+06 -1.034050E+03 -1.460973E+04 -1.728926E+01  4.417212E-10 -6.114722E-11
         6  19 -2.438692E+06  7.480755E+01 -4.818020E+03 -2.882233E+02 -3.549554E+03  1.654116E-03
         6  20 -2.438273E+06  1.419584E+02 -8.224987E+03 -1.354661E+02 -7.633724E+03  1.671974E-03
         6  21 -2.438699E+06 -1.034013E+03 -1.460947E+04  1.728926E+01 -1.171781E+04 -3.275566E-04
         6  22 -2.438692E+06  7.480739E+01 -4.818020E+03  1.086621E-08 -3.549554E+03  2.744512E-10
         6  23 -2.438273E+06  1.419583E+02 -8.224987E+03  7.326909E-10 -7.633724E+03 -8.883589E-10
         6  24 -2.438699E+06 -1.034013E+03 -1.460947E+04  1.511202E-08 -1.171781E+04 -4.675054E-10
         6  25 -2.438692E+06  7.480755E+01 -4.818020E+03  2.882233E+02 -3.549554E+03 -1.654115E-03
         6  26 -2.438273E+06  1.419584E+02 -8.224987E+03  1.354661E+02 -7.633724E+03 -1.671975E-03
         6  27 -2.438699E+06 -1.034013E+03 -1.460947E+04 -1.728926E+01 -1.171781E+04  3.275553E-04
         7   1 -2.439954E+06  9.279397E+02 -1.895240E+04 -2.811375E+03  1.466391E+04 -6.665490E-02
         7   2 -2.436721E+06  1.117429E+03 -3.260990E+04  1.362563E+03  3.111361E+04  6.854377E-02
         7   3 -2.439992E+06 -1.609292E+04 -6.135670E+04  5.536598E+03  4.756325E+04  4.257712E-01
         7   4 -2.439954E+06  9.279248E+02 -1.895240E+04 -1.485070E-08  1.466391E+04 -2.419725E-10
         7   5 -2.436721E+06  1.117426E+03 -3.260990E+04 -2.596827E-09  3.111361E+04 -1.038350E-09
         7   6 -2.439992E+06 -1.609297E+04 -6.135671E+04  2.678252E-09  4.756325E+04 -1.040258E-09
         7   7 -2.439954E+06  9.279397E+02 -1.895240E+04  2.811375E+03  1.466391E+04  6.665490E-02
         7   8 -2.436721E+06  1.117429E+03 -3.260990E+04 -1.362563E+03  3.111361E+04 -6.854377E-02
         7   9 -2.439992E+06 -1.609292E+04 -6.135670E+04 -5.536598E+03  4.756325E+04 -4.257712E-01
         7  10 -2.439954E+06  9.278817E+02 -1.895280E+04 -2.811375E+03 -2.591378E-09  6.925290E-11
         7  11 -2.436722E+06  1.117168E+03 -3.261173E+04  1.362563E+03 -8.408599E-10 -1.697454E-10
         7  12 -2.439994E+06 -1.609353E+04 -6.136097E+04  5.536598E+03 -2.996199E-10  1.119359E-10
         7  13 -2.439954E+06  9.278668E+02 -1.895281E+04 -1.493887E-08 -3.041574E-09 -8.309645E-11
         7  14 -2.436722E+06  1.117165E+03 -3.261173E+04  3.841991E-09  1.503977E-09 -2.385690E-10
         7  15 -2.439994E+06 -1.609359E+04 -6.136098E+04 -2.098300E-09  3.129543E-09 -2.911641E-10
         7  16 -2.439954E+06  9.278817E+02 -1.895280E+04  2.811375E+03  3.388143E-10 -4.020568E-10
         7  17 -2.436722E+06  1.117168E+03 -3.261173E+04 -1.362563E+03  1.653439E-09 -6.386073E-10
         7  18 -2.439994E+06 -1.609353E+04 -6.136097E+04 -5.536598E+03  6.648405E-10 -6.364535E-10
         7  19 -2.439954E+06  9.279397E+02 -1.895240E+04 -2.811375E+03 -1.466391E+04  6.665490E-02
         7  20 -2.436721E+06  1.117429E+03 -3.260990E+04  1.362563E+03 -3.111361E+04 -6.854377E-02
         7  21 -2.439992E+06 -1.609292E+04 -6.135670E+04  5.536598E+03 -4.756325E+04 -4.257712E-01
         7  22 -2.439954E+06  9.279248E+02 -1.895240E+04  2.229725E-09 -1.466391E+04  9.158639E-11
         7  23 -2.436721E+06  1.117426E+03 -3.260990E+04  1.028287E-08 -3.111361E+04  4.558682E-10
         7  24 -2.439992E+06 -1.609297E+04 -6.135671E+04  9.211515E-09 -4.756325E+04  4.373054E-10
         7  25 -2.439954E+06  9.279397E+02 -1.895240E+04  2.811375E+03 -1.466391E+04 -6.665490E-02
         7  26 -2.436721E+06  1.117429E+03 -3.260990E+04 -1.362563E+03 -3.111361E+04  6.854377E-02
         7  27 -2.439992E+06 -1.609292E+04 -6.135670E+04 -5.536598E+03 -4.756325E+04  4.257712E-01
         8   1 -2.454059E+06  1.261360E+04 -7.645408E+04 -3.430536E+04  5.871207E+04 -3.256573E+00
         8   2 -2.419172E+06  1.221838E+04 -1.276232E+05  3.249683E+04  1.267354E+05  6.658639E+00
         8   3 -2.454336E+06 -2.326217E+05 -2.843039E+05  9.929434E+04  1.947597E+05  3.126670E+01
         8   4 -2.454060E+06  1.261138E+04 -7.645440E+04  2.519471E-09  5.871207E+04 -6.315717E-10
         8   5 -2.419173E+06  1.221638E+04 -1.276235E+05 -2.641115E-09  1.267354E+05  2.967859E-11
         8   6 -2.454347E+06 -2.326403E+05 -2.843066E+05  3.488737E-09  1.947597E+05 -1.489094E-11
         8   7 -2.454059E+06  1.261360E+04 -7.645408E+04  3.430536E+04  5.871207E+04  3.256573E+00
         8   8 -2.419172E+06  1.221838E+04 -1.276232E+05 -3.249683E+04  1.267354E+05 -6.658639E+00
         8   9 -2.454336E+06 -2.326217E+05 -2.843039E+05 -9.929434E+04  1.947597E+05 -3.126670E+01
         8  10 -2.454063E+06  1.261267E+04 -7.646059E+04 -3.430536E+04 -8.117502E-10 -3.075044E-11
         8  11 -2.419189E+06  1.221404E+04 -1.276535E+05  3.249683E+04  3.582114E-10 -1.783251E-10
         8  12 -2.454377E+06 -2.326320E+05 -2.843755E+05  9.929434E+04  1.077547E-09 -1.030333E-10
         8  13 -2.454064E+06  1.261045E+04 -7.646090E+04  2.565687E-09 -1.042249E-09 -1.810742E-10
         8  14 -2.419190E+06  1.221205E+04 -1.276538E+05 -4.786415E-10  6.461952E-10  6.000531E-12
         8  15 -2.454388E+06 -2.326506E+05 -2.843782E+05  7.886682E-10 -1.741598E-09  1.160289E-11
         8  16 -2.454063E+06  1.261267E+04 -7.646059E+04  3.430536E+04 -4.554988E-10 -5.529426E-10
         8  17 -2.419189E+06  1.221404E+04 -1.276535E+05 -3.249683E+04 -1.221002E-09  3.172229E-10
         8  18 -2.454377E+06 -2.326320E+05 -2.843755E+05 -9.929434E+04  1.784109E-09  7.695700E-11
         8  19 -2.454059E+06  1.261360E+04 -7.645408E+04 -3.430536E+04 -5.871207E+04  3.256573E+00
         8  20 -2.419172E+06  1.221838E+04 -1.276232E+05  3.249683E+04 -1.267354E+05 -6.658639E+00
         8  21 -2.454336E+06 -2.326217E+05 -2.843039E+05  9.929434E+04 -1.947597E+05 -3.126670E+01
         8  22 -2.454060E+06  1.261138E+04 -7.645440E+04  9.069675E-09 -5.871207E+04  2.789642E-10
         8  23 -2.419173E+06  1.221638E+04 -1.276235E+05 -1.533637E-09 -1.267354E+05  5.350550E-12
         8  24 -2.454347E+06 -2.326403E+05 -2.843066E+05 -4.332029E-09 -1.947597E+05  5.425800E-11
         8  25 -2.454059E+06  1.261360E+04 -7.645408E+04  3.430536E+04 -5.871207E+04 -3.256573E+00
         8  26 -2.419172E+06  1.221838E+04 -1.276232E+05 -3.249683E+04 -1.267354E+05  6.658639E+00
         8  27 -2.454336E+06 -2.326217E+05 -2.843039E+05 -9.929434E+04 -1.947597E+05  3.126670E+01
         9   1  1.886127E+06  6.252012E+06  1.834661E+06 -1.144574E+06  8.585221E+04  6.098648E+05
         9   2  1.420373E+06  5.176120E+06  1.251489E+06 -9.608406E+05  2.777769E+05  2.784447E+05
         9   3  1.130446E+06  4.190788E+06  9.273288E+05 -1.006461E+06  3.027962E+05 -5.234290E+04
         9   4  2.042602E+05 -5.714362E+05  2.269260E+05 -1.006593E+06  8.694313E+04  1.574260E+05
         9   5  4.147796E+04 -5.908949E+05  1.097469E+05 -8.922209E+05  2.785374E+05  1.014418E+05
         9   6  7.860626E+03 -5.676998E+05  6.189521E+04 -1.007169E+06  3.025900E+05  4.547867E+04
         9   7 -1.480754E+06 -7.351838E+06 -1.383249E+06 -8.700727E+05  8.784374E+04 -2.901128E+05
         9   8 -1.339408E+06 -6.326180E+06 -1.033522E+06 -8.242044E+05  2.792640E+05 -7.396421E+04
         9   9 -1.115994E+06 -5.304237E+06 -8.044098E+05 -1.007835E+06  3.023825E+05  1.425736E+05
         9  10  1.886020E+06  6.251613E+06  1.833954E+06 -1.144616E+06 -7.295947E-12  2.590165E-09
         9  11  1.420270E+06  5.176016E+06  1.251199E+06 -9.609028E+05 -2.061827E-09 -1.046133E-09
         9  12  1.130347E+06  4.190761E+06  9.271515E+05 -1.006448E+06 -4.037781E-09 -4.763840E-09
         9  13  2.042454E+05 -5.714648E+05  2.268651E+05 -1.006604E+06  1.639450E-09 -1.793267E-11
         9  14  4.139186E+04 -5.909268E+05  1.095816E+05 -8.922436E+05  1.791882E-10  3.199243E-11
         9  15  7.761748E+03 -5.677266E+05  6.171920E+04 -1.007180E+06 -3.296380E-10  7.410207E-11
         9  16 -1.480785E+06 -7.351931E+06 -1.383423E+06 -8.700521E+05  2.182716E-09 -2.588229E-09
         9  17 -1.339493E+06 -6.326206E+06 -1.033679E+06 -8.241877E+05  1.543380E-09  9.040632E-10
         9  18 -1.116098E+06 -5.304284E+06 -8.046205E+05 -1.007869E+06  2.381668E-09  4.832513E-09
         9  19  1.886127E+06  6.252012E+06  1.834661E+06 -1.144574E+06 -8.585221E+04 -6.098648E+05
         9  20  1.420373E+06  5.176120E+06  1.251489E+06 -9.608406E+05 -2.777769E+05 -2.784447E+05
         9  21  1.130446E+06  4.190788E+06  9.273288E+05 -1.006461E+06 -3.027962E+05  5.234290E+04
         9  22  2.042602E+05 -5.714362E+05  2.269260E+05 -1.006593E+06 -8.694313E+04 -1.574260E+05
         9  23  4.147796E+04 -5.908949E+05  1.097469E+05 -8.922209E+05 -2.785374E+05 -1.014418E+05
         9  24  7.860626E+03 -5.676998E+05  6.189521E+04 -1.007169E+06 -3.025900E+05 -4.547867E+04
         9  25 -1.480754E+06 -7.351838E+06 -1.383249E+06 -8.700727E+05 -8.784374E+04  2.901128E+05
         9  26 -1.339408E+06 -6.326180E+06 -1.033522E+06 -8.242044E+05 -2.792640E+05  7.396421E+04
         9  27 -1.115994E+06 -5.304237E+06 -8.044098E+05 -1.007835E+06 -3.023825E+05 -1.425736E+05
        10   1  9.737291E+05  3.497910E+06  7.826998E+05 -1.025448E+06  2.651321E+05 -3.973788E+04
        10   2  7.214942E+05  2.464375E+06  5.620913E+05 -9.004767E+05  2.122443E+05 -7.382012E+04
        10   3  4.817305E+05  1.438522E+06  3.664284E+05 -1.015534E+06  1.471720E+05 -1.080319E+05
        10   4  1.348233E+04 -5.753038E+05  4.775207E+04 -1.009506E+06  2.649254E+05  3.707655E+04
        10   5  7.292646E+03 -5.758928E+05  2.802414E+04 -8.894736E+05  2.118399E+05  2.298846E+04
        10   6  1.019411E+04 -5.732557E+05  1.945593E+04 -1.009538E+06  1.465384E+05  8.716807E+03
        10   7 -9.476880E+05 -4.632401E+06 -6.878238E+05 -9.936408E+05  2.647217E+05  1.134025E+05
        10   8 -7.074081E+05 -3.607115E+06 -5.063431E+05 -8.785088E+05  2.114376E+05  1.193382E+05
        10   9 -4.615522E+05 -2.581035E+06 -3.276040E+05 -1.003553E+06  1.459057E+05  1.250995E+05
        10  10  9.736532E+05  3.497889E+06  7.825648E+05 -1.025439E+06 -3.366769E-09  3.256080E-10
        10  11  7.214444E+05  2.464357E+06  5.619966E+05 -9.004641E+05  4.936969E-10 -1.422911E-09
        10  12  4.817042E+05  1.438503E+06  3.663659E+05 -1.015522E+06 -3.761489E-10 -3.277368E-09
        10  13  1.340660E+04 -5.753241E+05  4.761755E+04 -1.009514E+06 -9.399276E-10  8.122025E-11
        10  14  7.244318E+03 -5.759054E+05  2.793880E+04 -8.894775E+05  1.212917E-09  7.702609E-11
        10  15  1.017104E+04 -5.732615E+05  1.941543E+04 -1.009539E+06  1.441699E-09 -2.929276E-11
        10  16 -9.477668E+05 -4.632434E+06 -6.879800E+05 -9.936650E+05  9.046782E-10 -3.897064E-10
        10  17 -7.074599E+05 -3.607143E+06 -5.064542E+05 -8.785292E+05 -9.824410E-10  1.391411E-09
        10  18 -4.615793E+05 -2.581058E+06 -3.276737E+05 -1.003567E+06 -1.311025E-09  3.306917E-09
        10  19  9.737291E+05  3.497910E+06  7.826998E+05 -1.025448E+06 -2.651321E+05  3.973788E+04
        10  20  7.214942E+05  2.464375E+06  5.620913E+05 -9.004767E+05 -2.122443E+05  7.382012E+04
        10  21  4.817305E+05  1.438522E+06  3.664284E+05 -1.015534E+06 -1.471720E+05  1.080319E+05
        10  22  1.348233E+04 -5.753038E+05  4.775207E+04 -1.009506E+06 -2.649254E+05 -3.707655E+04
        10  23  7.292646E+03 -5.758928E+05  2.802414E+04 -8.894736E+05 -2.118399E+05 -2.298846E+04
        10  24  1.019411E+04 -5.732557E+05  1.945593E+04 -1.009538E+06 -1.465384E+05 -8.716807E+03
        10  25 -9.476880E+05 -4.632401E+06 -6.878238E+05 -9.936408E+05 -2.647217E+05 -1.134025E+05
        10  26 -7.074081E+05 -3.607115E+06 -5.063431E+05 -8.785088E+05 -2.114376E+05 -1.193382E+05
        10  27 -4.615522E+05 -2.581035E+06 -3.276040E+05 -1.003553E+06 -1.459057E+05 -1.250995E+05
        11   1  3.221500E+05  7.611874E+05  2.411586E+05 -1.015560E+06  1.038674E+05 -1.126756E+05
        11   2  8.190384E+04 -2.658732E+05  4.910029E+04 -8.836949E+05  4.328037E+04 -8.293385E+04
        11   3 -1.484059E+05 -1.295667E+06 -1.605554E+05 -9.913347E+05  6.504126E+03 -5.317747E+04
        11   4  1.057409E+04 -5.728712E+05  1.731407E+04 -1.009411E+06  1.031815E+05  5.400663E+03
        11   5  1.395904E+04 -5.742501E+05  1.743578E+04 -8.896096E+05  4.281341E+04 -3.792129E+03
        11   6  3.408693E+04 -5.726528E+05  2.698836E+04 -1.009294E+06  6.259398E+03 -1.292144E+04
        11   7 -3.010875E+05 -1.905145E+06 -2.065338E+05 -1.003272E+06  1.024970E+05  1.232317E+05
        11   8 -5.398547E+04 -8.825135E+05 -1.420373E+04 -8.955211E+05  4.234477E+04  7.531258E+04
        11   9  2.165407E+05  1.508355E+05  2.144968E+05 -1.027273E+06  6.012507E+03  2.738174E+04
        11  10  3.221350E+05  7.611710E+05  2.411146E+05 -1.015551E+06 -3.169300E-10 -2.726746E-08
        11  11  8.189999E+04 -2.658811E+05  4.908387E+04 -8.836920E+05  7.358450E-10 -1.250073E-09
        11  12 -1.484067E+05 -1.295670E+06 -1.605608E+05 -9.913344E+05 -7.823070E-10  2.487228E-08
        11  13  1.056265E+04 -5.728741E+05  1.729401E+04 -1.009412E+06  1.494969E-09  9.882034E-11
        11  14  1.395707E+04 -5.742506E+05  1.743231E+04 -8.896095E+05  2.082713E-09  3.250493E-11
        11  15  3.408684E+04 -5.726530E+05  2.698797E+04 -1.009294E+06  4.715063E-10 -1.302132E-11
        11  16 -3.011029E+05 -1.905165E+06 -2.065823E+05 -1.003283E+06 -1.510575E-09  2.732672E-08
        11  17 -5.398893E+04 -8.825200E+05 -1.421780E+04 -8.955236E+05 -5.069317E-10  1.058232E-09
        11  18  2.165405E+05  1.508347E+05  2.144953E+05 -1.027273E+06 -8.566048E-10 -2.504469E-08
        11  19  3.221500E+05  7.611874E+05  2.411586E+05 -1.015560E+06 -1.038674E+05  1.126756E+05
        11  20  8.190384E+04 -2.658732E+05  4.910029E+04 -8.836949E+05 -4.328037E+04  8.293385E+04
        11  21 -1.484059E+05 -1.295667E+06 -1.605554E+05 -9.913347E+05 -6.504126E+03  5.317747E+04
        11  22  1.057409E+04 -5.728712E+05  1.731407E+04 -1.009411E+06 -1.031815E+05 -5.400663E+03
        11  23  1.395904E+04 -5.742501E+05  1.743578E+04 -8.896096E+05 -4.281341E+04  3.792129E+03
        11  24  3.408693E+04 -5.726528E+05  2.698836E+04 -1.009294E+06 -6.259398E+03  1.292144E+04
        11  25 -3.010875E+05 -1.905145E+06 -2.065338E+05 -1.003272E+06 -1.024970E+05 -1.232317E+05
        11  26 -5.398547E+04 -8.825135E+05 -1.420373E+04 -8.955211E+05 -4.234477E+04 -7.531258E+04
        11  27  2.165407E+05  1.508355E+05  2.144968E+05 -1.027273E+06 -6.012507E+03 -2.738174E+04
        12   1 -3.251344E+06 -8.936415E+05 -4.430464E+05 -1.236143E+06 -2.589022E+05 -9.484644E+04
        12   2 -3.191871E+06 -4.990133E+05 -2.017172E+05 -1.248080E+06 -1.646070E+05 -5.559661E+04
        12   3 -3.253002E+06 -4.434345E+05 -1.207032E+05 -1.192962E+06 -6.853104E+04 -2.107511E+04
        12   4 -3.178572E+06 -7.457154E+05 -3.997231E+05 -1.092320E+06 -2.547464E+05 -9.335179E+04
        12   5 -3.097070E+06 -4.250827E+05 -1.705985E+05 -1.182508E+06 -1.638499E+05 -5.532567E+04