
 stresses (elem, integ.pnt.,sxx,syy,szz,sxy,sxz,syz) for set ELALL and time  0.1000000E+01

         1   1 -4.219915E+06 -4.536139E+05 -5.805720E+05 -1.131559E+05 -3.956268E+05  7.257652E+01
         1   2 -4.135825E+06  8.191303E+04 -2.512514E+05 -3.107741E+04 -2.593685E+05  1.306664E+01
         1   3 -4.218975E+06  2.079341E+04 -1.601795E+05  5.101288E+04 -1.231135E+05 -1.018226E+01
         1   4 -4.219929E+06 -4.536381E+05 -5.805754E+05  2.623525E-08 -3.956268E+05  9.085019E-10
         1   5 -4.135826E+06  8.191120E+04 -2.512516E+05 -3.058573E-08 -2.593685E+05  1.807316E-09
         1   6 -4.218978E+06  2.078849E+04 -1.601802E+05  1.581643E-08 -1.231135E+05 -1.638719E-09
         1   7 -4.219915E+06 -4.536139E+05 -5.805720E+05  1.131559E+05 -3.956268E+05 -7.257652E+01
         1   8 -4.135825E+06  8.191303E+04 -2.512514E+05  3.107741E+04 -2.593685E+05 -1.306664E+01
         1   9 -4.218975E+06  2.079341E+04 -1.601795E+05 -5.101288E+04 -1.231135E+05  1.018226E+01
         1  10 -4.220084E+06 -4.536562E+05 -5.808681E+05 -1.131559E+05  6.472368E-10  9.667952E-11
         1  11 -4.135898E+06  8.189481E+04 -2.513786E+05 -3.107740E+04 -2.531297E-09 -1.318734E-10
         1  12 -4.218992E+06  2.078931E+04 -1.602082E+05  5.101288E+04  1.563403E-10  6.139579E-10
         1  13 -4.220098E+06 -4.536805E+05 -5.808716E+05  1.431641E-08 -2.116127E-09 -6.457742E-11
         1  14 -4.135899E+06  8.189299E+04 -2.513789E+05 -1.596436E-08 -3.231180E-09 -1.235166E-10
         1  15 -4.218995E+06  2.078439E+04 -1.602089E+05 -1.180953E-08 -9.505788E-10 -1.942004E-10
         1  16 -4.220084E+06 -4.536562E+05 -5.808681E+05  1.131559E+05  1.117565E-09  1.157355E-10
         1  17 -4.135898E+06  8.189481E+04 -2.513786E+05  3.107740E+04 -1.714581E-09 -3.801785E-10
         1  18 -4.218992E+06  2.078931E+04 -1.602082E+05 -5.101288E+04 -9.728617E-10 -1.452650E-09
         1  19 -4.219915E+06 -4.536139E+05 -5.805720E+05 -1.131559E+05  3.956268E+05 -7.257652E+01
         1  20 -4.135825E+06  8.191303E+04 -2.512514E+05 -3.107741E+04  2.593685E+05 -1.306664E+01
         1  21 -4.218975E+06  2.079341E+04 -1.601795E+05  5.101288E+04  1.231135E+05  1.018226E+01
         1  22 -4.219929E+06 -4.536381E+05 -5.805754E+05  3.678746E-08  3.956268E+05 -1.021228E-09
         1  23 -4.135826E+06  8.191120E+04 -2.512516E+05  1.586923E-08  2.593685E+05 -2.066819E-09
         1  24 -4.218978E+06  2.078849E+04 -1.601802E+05  2.291801E-08  1.231135E+05  9.688188E-10
         1  25 -4.219915E+06 -4.536139E+05 -5.805720E+05  1.131559E+05  3.956268E+05  7.257652E+01
         1  26 -4.135825E+06  8.191303E+04 -2.512514E+05  3.107741E+04  2.593685E+05  1.306664E+01
         1  27 -4.218975E+06  2.079341E+04 -1.601795E+05 -5.101288E+04  1.231135E+05 -1.018226E+01
         2   1 -4.187136E+06 -5.591513E+04 -1.314860E+05 -1.292527E+04 -9.768397E+04  2.046910E+00
         2   2 -4.175600E+06  1.022842E+04 -6.520125E+04 -3.185634E+03 -6.400930E+04  3.305758E-01
         2   3 -4.186971E+06  2.516795E+03 -3.940954E+04  6.553968E+03 -3.033384E+04 -3.223086E-01
         2   4 -4.187136E+06 -5.591545E+04 -1.314860E+05  4.389475E-08 -9.768397E+04 -1.460780E-09
         2   5 -4.175600E+06  1.022841E+04 -6.520125E+04 -2.892485E-08 -6.400930E+04  1.646172E-09
         2   6 -4.186971E+06  2.516714E+03 -3.940955E+04 -6.616316E-10 -3.033384E+04 -4.180747E-10
         2   7 -4.187136E+06 -5.591513E+04 -1.314860E+05  1.292527E+04 -9.768397E+04 -2.046910E+00
         2   8 -4.175600E+06  1.022842E+04 -6.520125E+04  3.185634E+03 -6.400930E+04 -3.305758E-01
         2   9 -4.186971E+06  2.516795E+03 -3.940954E+04 -6.553968E+03 -3.033384E+04  3.223086E-01
         2  10 -4.187146E+06 -5.591771E+04 -1.315040E+05 -1.292527E+04 -2.129043E-09  8.607859E-10
         2  11 -4.175604E+06  1.022732E+04 -6.520900E+04 -3.185634E+03 -1.417642E-09  3.972087E-10
         2  12 -4.186972E+06  2.516546E+03 -3.941128E+04  6.553968E+03  1.202850E-09 -7.824696E-10
         2  13 -4.187146E+06 -5.591803E+04 -1.315041E+05 -4.882728E-08 -3.904239E-09  2.168979E-10
         2  14 -4.175604E+06  1.022730E+04 -6.520900E+04 -2.204759E-08 -1.914811E-09  6.978172E-10
         2  15 -4.186972E+06  2.516465E+03 -3.941129E+04 -1.676116E-08 -1.969730E-09 -2.019324E-10
         2  16 -4.187146E+06 -5.591771E+04 -1.315040E+05  1.292527E+04 -1.280637E-09 -3.054103E-10
         2  17 -4.175604E+06  1.022732E+04 -6.520900E+04  3.185634E+03  2.306502E-09 -6.011206E-11
         2  18 -4.186972E+06  2.516546E+03 -3.941128E+04 -6.553968E+03  3.492114E-10 -3.809097E-10
         2  19 -4.187136E+06 -5.591513E+04 -1.314860E+05 -1.292527E+04  9.768397E+04 -2.046910E+00
         2  20 -4.175600E+06  1.022842E+04 -6.520125E+04 -3.185634E+03  6.400930E+04 -3.305758E-01
         2  21 -4.186971E+06  2.516795E+03 -3.940954E+04  6.553968E+03  3.033384E+04  3.223086E-01
         2  22 -4.187136E+06 -5.591545E+04 -1.314860E+05  1.325340E-08  9.768397E+04  1.691719E-09
         2  23 -4.175600E+06  1.022841E+04 -6.520125E+04 -1.087593E-08  6.400930E+04 -1.699262E-10
         2  24 -4.186971E+06  2.516714E+03 -3.940955E+04  2.304835E-08  3.033384E+04 -2.738263E-11
         2  25 -4.187136E+06 -5.591513E+04 -1.314860E+05  1.292527E+04  9.768397E+04  2.046910E+00
         2  26 -4.175600E+06  1.022842E+04 -6.520125E+04  3.185634E+03  6.400930E+04  3.305758E-01
         2  27 -4.186971E+06  2.516795E+03 -3.940954E+04 -6.553968E+03  3.033384E+04 -3.223086E-01
         3   1 -4.182658E+06 -6.821609E+03 -3.113660E+04 -1.323526E+03 -2.407391E+04  5.165550E-02
         3   2 -4.180951E+06  1.282967E+03 -1.670284E+04 -2.304396E+02 -1.565010E+04  5.846702E-03
         3   3 -4.182627E+06  2.883623E+02 -1.005547E+04  8.626256E+02 -7.226322E+03 -1.010596E-02
         3   4 -4.182658E+06 -6.821613E+03 -3.113660E+04 -9.288728E-09 -2.407391E+04 -9.929434E-10
         3   5 -4.180951E+06  1.282967E+03 -1.670284E+04 -4.084202E-08 -1.565010E+04  8.351231E-10
         3   6 -4.182627E+06  2.883609E+02 -1.005547E+04  1.039034E-08 -7.226322E+03 -4.972913E-10
         3   7 -4.182658E+06 -6.821609E+03 -3.113660E+04  1.323526E+03 -2.407391E+04 -5.165550E-02
         3   8 -4.180951E+06  1.282967E+03 -1.670284E+04  2.304396E+02 -1.565010E+04 -5.846703E-03
         3   9 -4.182627E+06  2.883623E+02 -1.005547E+04 -8.626256E+02 -7.226322E+03  1.010596E-02
         3  10 -4.182658E+06 -6.821766E+03 -3.113769E+04 -1.323526E+03 -1.762009E-09 -7.453964E-10
         3  11 -4.180951E+06  1.282901E+03 -1.670330E+04 -2.304396E+02 -5.109854E-10  9.486585E-10
         3  12 -4.182627E+06  2.883481E+02 -1.005557E+04  8.626256E+02 -2.971502E-09  1.227389E-10
         3  13 -4.182658E+06 -6.821770E+03 -3.113770E+04  2.666189E-08 -2.257055E-09 -1.418645E-10
         3  14 -4.180951E+06  1.282901E+03 -1.670330E+04 -2.148641E-09 -3.225426E-09  8.989776E-10
         3  15 -4.182627E+06  2.883467E+02 -1.005557E+04  5.600652E-09  3.897183E-09 -4.753342E-10
         3  16 -4.182658E+06 -6.821766E+03 -3.113769E+04  1.323526E+03  1.093817E-09  9.252746E-10
         3  17 -4.180951E+06  1.282901E+03 -1.670330E+04  2.304396E+02  3.080766E-09  6.614938E-10
         3  18 -4.182627E+06  2.883481E+02 -1.005557E+04 -8.626256E+02  7.895476E-10 -6.029772E-10
         3  19 -4.182658E+06 -6.821609E+03 -3.113660E+04 -1.323526E+03  2.407391E+04 -5.165550E-02
         3  20 -4.180951E+06  1.282967E+03 -1.670284E+04 -2.304396E+02  1.565010E+04 -5.846700E-03
         3  21 -4.182627E+06  2.883623E+02 -1.005547E+04  8.626256E+02  7.226322E+03  1.010596E-02
         3  22 -4.182658E+06 -6.821613E+03 -3.113660E+04  2.822616E-08  2.407391E+04  5.340653E-10
         3  23 -4.180951E+06  1.282967E+03 -1.670284E+04  2.794132E-08  1.565010E+04  1.104447E-09
         3  24 -4.182627E+06  2.883609E+02 -1.005547E+04  8.318219E-09  7.226322E+03 -4.129896E-10
         3  25 -4.182658E+06 -6.821609E+03 -3.113660E+04  1.323526E+03  2.407391E+04  5.165550E-02
         3  26 -4.180951E+06  1.282967E+03 -1.670284E+04  2.304396E+02  1.565010E+04  5.846702E-03
         3  27 -4.182627E+06  2.883623E+02 -1.005547E+04 -8.626256E+02  7.226322E+03 -1.010597E-02
         4   1 -4.182016E+06 -8.122690E+02 -7.964761E+03 -1.075995E+02 -5.612411E+03  9.790333E-04
         4   2 -4.181700E+06  1.777348E+02 -4.953919E+03  3.988636E+00 -3.144665E+03 -2.033337E-05
         4   3 -4.182011E+06 -4.173177E+01 -3.860208E+03  1.155783E+02 -6.768767E+02 -1.268296E-04
         4   4 -4.182016E+06 -8.122690E+02 -7.964761E+03  3.975537E-08 -5.612411E+03 -7.291920E-10
         4   5 -4.181700E+06  1.777348E+02 -4.953919E+03 -3.441541E-08 -3.144665E+03  1.748641E-09
         4   6 -4.182011E+06 -4.173180E+01 -3.860208E+03  3.119075E-08 -6.768767E+02 -1.608283E-10
         4   7 -4.182016E+06 -8.122690E+02 -7.964761E+03  1.075995E+02 -5.612411E+03 -9.790354E-04
         4   8 -4.181700E+06  1.777348E+02 -4.953919E+03 -3.988637E+00 -3.144665E+03  2.033437E-05
         4   9 -4.182011E+06 -4.173177E+01 -3.860208E+03 -1.155783E+02 -6.768767E+02  1.268288E-04
         4  10 -4.182016E+06 -8.122775E+02 -7.964821E+03 -1.075995E+02 -2.191102E-09 -3.492501E-10
         4  11 -4.181700E+06  1.777321E+02 -4.953938E+03  3.988636E+00 -2.465825E-09  4.213343E-11
         4  12 -4.182011E+06 -4.173189E+01 -3.860209E+03  1.155783E+02  3.561034E-09 -1.417672E-10
         4  13 -4.182016E+06 -8.122775E+02 -7.964821E+03  2.263248E-08 -2.339349E-09 -4.785350E-10
         4  14 -4.181700E+06  1.777321E+02 -4.953938E+03 -8.586438E-09 -1.961254E-09  7.365301E-10
         4  15 -4.182011E+06 -4.173192E+01 -3.860209E+03 -1.099627E-09 -8.624693E-10 -2.861568E-10
         4  16 -4.182016E+06 -8.122775E+02 -7.964821E+03  1.075995E+02 -1.273709E-09 -1.416580E-09
         4  17 -4.181700E+06  1.777321E+02 -4.953938E+03 -3.988636E+00 -2.307411E-09  8.927408E-10
         4  18 -4.182011E+06 -4.173189E+01 -3.860209E+03 -1.155783E+02 -9.310860E-10 -4.355649E-10
         4  19 -4.182016E+06 -8.122690E+02 -7.964761E+03 -1.075995E+02  5.612411E+03 -9.790327E-04
         4  20 -4.181700E+06  1.777348E+02 -4.953919E+03  3.988636E+00  3.144665E+03  2.033590E-05
         4  21 -4.182011E+06 -4.173177E+01 -3.860208E+03  1.155783E+02  6.768767E+02  1.268304E-04
         4  22 -4.182016E+06 -8.122690E+02 -7.964761E+03  5.708789E-08  5.612411E+03 -3.726619E-10
         4  23 -4.181700E+06  1.777348E+02 -4.953919E+03 -8.588536E-09  3.144665E+03 -3.095566E-10
         4  24 -4.182011E+06 -4.173180E+01 -3.860208E+03  3.109642E-08  6.768767E+02 -2.731290E-10
         4  25 -4.182016E+06 -8.122690E+02 -7.964761E+03  1.075995E+02  5.612411E+03  9.790306E-04
         4  26 -4.181700E+06  1.777348E+02 -4.953919E+03 -3.988636E+00  3.144665E+03 -2.033493E-05
         4  27 -4.182011E+06 -4.173177E+01 -3.860208E+03 -1.155783E+02  6.768767E+02 -1.268315E-04
         5   1 -4.181991E+06 -6.684732E+01 -3.747118E+03 -9.022690E+01  7.276659E+00 -1.064387E-06
         5   2 -4.181724E+06  1.495265E+02 -4.332274E+03  1.169021E+00  2.164490E+03  4.102541E-06
         5   3 -4.181995E+06 -6.484387E+02 -6.582565E+03  9.256503E+01  4.321699E+03  6.485457E-04
         5   4 -4.181991E+06 -6.684733E+01 -3.747118E+03  4.648148E-08  7.276659E+00  4.031589E-11
         5   5 -4.181724E+06  1.495265E+02 -4.332274E+03  1.286176E-08  2.164490E+03  1.185840E-09
         5   6 -4.181995E+06 -6.484387E+02 -6.582565E+03  2.545496E-08  4.321699E+03 -1.015253E-09
         5   7 -4.181991E+06 -6.684732E+01 -3.747118E+03  9.022690E+01  7.276659E+00  1.063148E-06
         5   8 -4.181724E+06  1.495265E+02 -4.332274E+03 -1.169020E+00  2.164490E+03 -4.103344E-06
         5   9 -4.181995E+06 -6.484387E+02 -6.582565E+03 -9.256503E+01  4.321699E+03 -6.485460E-04
         5  10 -4.181991E+06 -6.684732E+01 -3.747118E+03 -9.022690E+01  1.546553E-09 -2.014339E-10
         5  11 -4.181725E+06  1.495252E+02 -4.332283E+03  1.169021E+00  4.317382E-09  7.763543E-10
         5  12 -4.181995E+06 -6.484437E+02 -6.582601E+03  9.256503E+01  3.904000E-09 -3.557077E-10
         5  13 -4.181991E+06 -6.684733E+01 -3.747118E+03  3.563205E-09  3.110309E-10 -2.475150E-10
         5  14 -4.181725E+06  1.495252E+02 -4.332283E+03 -1.724478E-08 -1.961248E-09  5.027295E-10
         5  15 -4.181995E+06 -6.484437E+02 -6.582601E+03  4.978733E-09  2.639404E-09 -3.810343E-10
         5  16 -4.181991E+06 -6.684732E+01 -3.747118E+03  9.022690E+01 -3.741075E-09 -1.653502E-10
         5  17 -4.181725E+06  1.495252E+02 -4.332283E+03 -1.169021E+00  5.680697E-10  2.186852E-10
         5  18 -4.181995E+06 -6.484437E+02 -6.582601E+03 -9.256503E+01 -3.426755E-10 -6.866402E-10
         5  19 -4.181991E+06 -6.684732E+01 -3.747118E+03 -9.022690E+01 -7.276659E+00  1.065308E-06
         5  20 -4.181724E+06  1.495265E+02 -4.332274E+03  1.169021E+00 -2.164490E+03 -4.102178E-06
         5  21 -4.181995E+06 -6.484387E+02 -6.582565E+03  9.256503E+01 -4.321699E+03 -6.485442E-04
         5  22 -4.181991E+06 -6.684733E+01 -3.747118E+03 -1.359949E-08 -7.276659E+00 -3.459217E-10
         5  23 -4.181724E+06  1.495265E+02 -4.332274E+03 -3.014249E-08 -2.164490E+03  5.188344E-10
         5  24 -4.181995E+06 -6.484387E+02 -6.582565E+03  1.781984E-08 -4.321699E+03  2.072291E-10
         5  25 -4.181991E+06 -6.684732E+01 -3.747118E+03  9.022690E+01 -7.276659E+00 -1.066146E-06
         5  26 -4.181724E+06  1.495265E+02 -4.332274E+03 -1.169021E+00 -2.164490E+03  4.101922E-06
         5  27 -4.181995E+06 -6.484387E+02 -6.582565E+03 -9.256503E+01 -4.321699E+03  6.485427E-04
         6   1 -4.182476E+06  2.271744E+02 -8.203094E+03 -6.879333E+02  5.646042E+03 -6.296925E-03
         6   2 -4.181133E+06  1.026868E+03 -1.344814E+04  1.857331E+02  1.242752E+04  3.742063E-03
         6   3 -4.182501E+06 -5.454672E+03 -2.495070E+04  1.059390E+03  1.920885E+04  3.299095E-02
         6   4 -4.182476E+06  2.271735E+02 -8.203094E+03 -2.861120E-08  5.646042E+03 -8.182449E-10
         6   5 -4.181133E+06  1.026868E+03 -1.344814E+04 -1.769977E-08  1.242752E+04  3.194897E-10
         6   6 -4.182501E+06 -5.454674E+03 -2.495070E+04  1.577545E-08  1.920885E+04 -3.690047E-10
         6   7 -4.182476E+06  2.271744E+02 -8.203094E+03  6.879333E+02  5.646042E+03  6.296923E-03
         6   8 -4.181133E+06  1.026868E+03 -1.344814E+04 -1.857331E+02  1.242752E+04 -3.742064E-03
         6   9 -4.182501E+06 -5.454672E+03 -2.495070E+04 -1.059390E+03  1.920885E+04 -3.299095E-02
         6  10 -4.182476E+06  2.271658E+02 -8.203155E+03 -6.879333E+02 -1.599282E-09  5.754102E-11
         6  11 -4.181133E+06  1.026827E+03 -1.344843E+04  1.857331E+02 -8.101390E-10 -5.841242E-10
         6  12 -4.182502E+06 -5.454772E+03 -2.495140E+04  1.059390E+03  2.895712E-10  2.611328E-10
         6  13 -4.182476E+06  2.271649E+02 -8.203155E+03 -3.721038E-08 -2.595294E-09 -7.101119E-10
         6  14 -4.181133E+06  1.026826E+03 -1.344843E+04 -4.908674E-10 -6.828777E-09  7.437091E-11
         6  15 -4.182502E+06 -5.454774E+03 -2.495140E+04  2.117224E-08 -1.223946E-09  3.168208E-10
         6  16 -4.182476E+06  2.271658E+02 -8.203155E+03  6.879333E+02 -1.848664E-09 -6.766437E-10
         6  17 -4.181133E+06  1.026827E+03 -1.344843E+04 -1.857331E+02  2.078489E-09  4.550148E-10
         6  18 -4.182502E+06 -5.454772E+03 -2.495140E+04 -1.059390E+03 -8.491131E-10  4.027342E-10
         6  19 -4.182476E+06  2.271744E+02 -8.203094E+03 -6.879333E+02 -5.646042E+03  6.296925E-03
         6  20 -4.181133E+06  1.026868E+03 -1.344814E+04  1.857331E+02 -1.242752E+04 -3.742061E-03
         6  21 -4.182501E+06 -5.454672E+03 -2.495070E+04  1.059390E+03 -1.920885E+04 -3.299094E-02
         6  22 -4.182476E+06  2.271735E+02 -8.203094E+03 -2.767526E-09 -5.646042E+03 -3.394479E-10
         6  23 -4.181133E+06  1.026868E+03 -1.344814E+04  1.243206E-08 -1.242752E+04 -6.268746E-10
         6  24 -4.182501E+06 -5.454674E+03 -2.495070E+04  4.164223E-08 -1.920885E+04  7.612333E-10
         6  25 -4.182476E+06  2.271744E+02 -8.203094E+03  6.879333E+02 -5.646042E+03 -6.296927E-03
         6  26 -4.181133E+06  1.026868E+03 -1.344814E+04 -1.857331E+02 -1.242752E+04  3.742061E-03
         6  27 -4.182501E+06 -5.454672E+03 -2.495070E+04 -1.059390E+03 -1.920885E+04  3.299095E-02
         7   1 -4.185949E+06  2.012286E+03 -3.155342E+04 -5.240086E+03  2.422326E+04 -2.057836E-01
         7   2 -4.176856E+06  8.178894E+03 -5.216097E+04  2.547763E+03  5.116177E+04  2.113187E-01
         7   3 -4.186081E+06 -4.471162E+04 -1.051557E+05  1.033575E+04  7.810018E+04  1.308670E+00
         7   4 -4.185949E+06  2.012234E+03 -3.155343E+04  4.299814E-08  2.422326E+04 -5.004272E-10
         7   5 -4.176856E+06  8.178882E+03 -5.216097E+04  2.696481E-08  5.116177E+04 -2.931147E-10
         7   6 -4.186081E+06 -4.471183E+04 -1.051558E+05  7.221480E-08  7.810018E+04 -1.737807E-09
         7   7 -4.185949E+06  2.012286E+03 -3.155342E+04  5.240086E+03  2.422326E+04  2.057836E-01
         7   8 -4.176856E+06  8.178894E+03 -5.216097E+04 -2.547763E+03  5.116177E+04 -2.113187E-01
         7   9 -4.186081E+06 -4.471162E+04 -1.051557E+05 -1.033575E+04  7.810018E+04 -1.308670E+00
         7  10 -4.185950E+06  2.012127E+03 -3.155453E+04 -5.240086E+03 -5.830627E-11  1.113559E-09
         7  11 -4.176859E+06  8.178185E+03 -5.216592E+04  2.547763E+03 -9.703899E-10  2.543614E-10
         7  12 -4.186088E+06 -4.471328E+04 -1.051673E+05  1.033575E+04 -6.242592E-10 -8.160735E-10
         7  13 -4.185950E+06  2.012075E+03 -3.155454E+04  1.724438E-08 -1.840398E-09  4.866330E-10
         7  14 -4.176859E+06  8.178173E+03 -5.216592E+04  1.404579E-08 -4.421825E-09  2.699308E-10
         7  15 -4.186088E+06 -4.471348E+04 -1.051673E+05  1.732298E-08 -2.720898E-09 -7.515792E-10
         7  16 -4.185950E+06  2.012127E+03 -3.155453E+04  5.240086E+03 -2.125489E-09  8.018392E-10
         7  17 -4.176859E+06  8.178185E+03 -5.216592E+04 -2.547763E+03 -1.878770E-10  3.914079E-10
         7  18 -4.186088E+06 -4.471328E+04 -1.051673E+05 -1.033575E+04  3.185928E-10 -5.171367E-10
         7  19 -4.185949E+06  2.012286E+03 -3.155342E+04 -5.240086E+03 -2.422326E+04  2.057836E-01
         7  20 -4.176856E+06  8.178894E+03 -5.216097E+04  2.547763E+03 -5.116177E+04 -2.113187E-01
         7  21 -4.186081E+06 -4.471162E+04 -1.051557E+05  1.033575E+04 -7.810018E+04 -1.308670E+00
         7  22 -4.185949E+06  2.012234E+03 -3.155343E+04  5.167075E-08 -2.422326E+04  1.521679E-09
         7  23 -4.176856E+06  8.178882E+03 -5.216097E+04 -7.483180E-09 -5.116177E+04  1.112878E-09
         7  24 -4.186081E+06 -4.471183E+04 -1.051558E+05  5.484670E-08 -7.810018E+04  2.005982E-10
         7  25 -4.185949E+06  2.012286E+03 -3.155342E+04  5.240086E+03 -2.422326E+04 -2.057836E-01
         7  26 -4.176856E+06  8.178894E+03 -5.216097E+04 -2.547763E+03 -5.116177E+04  2.113187E-01
         7  27 -4.186081E+06 -4.471162E+04 -1.051557E+05 -1.033575E+04 -7.810018E+04  1.308670E+00
         8   1 -4.211542E+06  1.662525E+04 -1.280997E+05 -4.079044E+04  9.843887E+04 -6.509981E+00
         8   2 -4.145055E+06  6.549838E+04 -2.009378E+05  2.484910E+04  2.073912E+05  8.354298E+00
         8   3 -4.212304E+06 -3.627275E+05 -4.642977E+05  9.048191E+04  3.163469E+05  4.640442E+01
         8   4 -4.211544E+06  1.662210E+04 -1.281002E+05  4.891623E-08  9.843887E+04 -1.122860E-09
         8   5 -4.145056E+06  6.549721E+04 -2.009379E+05 -2.068847E-08  2.073912E+05  1.673185E-09
         8   6 -4.212312E+06 -3.627430E+05 -4.642999E+05 -7.507657E-09  3.163469E+05  5.056675E-10
         8   7 -4.211542E+06  1.662525E+04 -1.280997E+05  4.079044E+04  9.843887E+04  6.509981E+00
         8   8 -4.145055E+06  6.549838E+04 -2.009378E+05 -2.484910E+04  2.073912E+05 -8.354298E+00
         8   9 -4.212304E+06 -3.627275E+05 -4.642977E+05 -9.048191E+04  3.163469E+05 -4.640442E+01
         8  10 -4.211553E+06  1.662262E+04 -1.281180E+05 -4.079044E+04 -2.126815E-09 -5.949856E-10
         8  11 -4.145102E+06  6.548674E+04 -2.010191E+05  2.484909E+04 -5.290426E-09  5.609806E-10
         8  12 -4.212412E+06 -3.627546E+05 -4.644870E+05  9.048190E+04  1.114595E-09  4.152199E-10
         8  13 -4.211554E+06  1.661948E+04 -1.281185E+05  3.177370E-08 -6.517230E-09 -7.277634E-10
         8  14 -4.145102E+06  6.548557E+04 -2.010193E+05  8.259628E-10 -3.038738E-09  6.039814E-10
         8  15 -4.212420E+06 -3.627701E+05 -4.644892E+05  2.146520E-09 -4.715475E-09  2.820219E-10
         8  16 -4.211553E+06  1.662262E+04 -1.281180E+05  4.079044E+04 -4.123623E-10 -4.135124E-10
         8  17 -4.145102E+06  6.548674E+04 -2.010191E+05 -2.484909E+04 -6.429364E-10  4.040472E-10
         8  18 -4.212412E+06 -3.627546E+05 -4.644870E+05 -9.048190E+04  1.647835E-09  1.819648E-10
         8  19 -4.211542E+06  1.662525E+04 -1.280997E+05 -4.079044E+04 -9.843887E+04  6.509981E+00
         8  20 -4.145055E+06  6.549838E+04 -2.009378E+05  2.484910E+04 -2.073912E+05 -8.354298E+00
         8  21 -4.212304E+06 -3.627275E+05 -4.642977E+05  9.048191E+04 -3.163469E+05 -4.640442E+01
         8  22 -4.211544E+06  1.662210E+04 -1.281002E+05  4.902534E-08 -9.843887E+04 -1.615510E-10
         8  23 -4.145056E+06  6.549721E+04 -2.009379E+05  1.805627E-08 -2.073912E+05 -5.462227E-10
         8  24 -4.212312E+06 -3.627430E+05 -4.642999E+05  3.188002E-09 -3.163469E+05  2.164823E-11
         8  25 -4.211542E+06  1.662525E+04 -1.280997E+05  4.079044E+04 -9.843887E+04 -6.509981E+00
         8  26 -4.145055E+06  6.549838E+04 -2.009378E+05 -2.484910E+04 -2.073912E+05  8.354298E+00
         8  27 -4.212304E+06 -3.627275E+05 -4.642977E+05 -9.048191E+04 -3.163469E+05  4.640442E+01
         9   1  2.224834E+06  7.844581E+06  2.130443E+06 -1.424769E+06  1.014292E+05  8.032626E+05
         9   2  1.751677E+06  6.698418E+06  1.441878E+06 -1.267062E+06  3.383277E+05  3.765969E+05
         9   3  1.438223E+06  5.651340E+06  1.069636E+06 -1.303509E+06  3.907167E+05 -4.907687E+04
         9   4  1.829867E+05 -4.665285E+05  1.969873E+05 -1.287032E+06  1.033094E+05  1.349069E+05
         9   5  5.231643E+04 -4.808574E+05  9.944757E+04 -1.190282E+06  3.396981E+05  8.515636E+04
         9   6  1.732106E+04 -4.614902E+05  5.880601E+04 -1.287627E+06  3.906778E+05  3.553369E+04
         9   7 -1.863426E+06 -8.713411E+06 -1.739466E+06 -1.151035E+06  1.049158E+05 -5.246560E+05
         9   8 -1.649953E+06 -7.610421E+06 -1.244890E+06 -1.114322E+06  3.410085E+05 -2.030294E+05
         9   9 -1.405504E+06 -6.537574E+06 -9.531152E+05 -1.271832E+06  3.906429E+05  1.193437E+05
         9  10  2.224652E+06  7.843892E+06  2.129225E+06 -1.424835E+06 -2.383823E-09  1.187658E-07
         9  11  1.751516E+06  6.698236E+06  1.441398E+06 -1.267165E+06  4.122511E-10 -3.753097E-08
         9  12  1.438058E+06  5.651296E+06  1.069345E+06 -1.303494E+06 -5.392903E-09 -1.883458E-07
         9  13  1.829703E+05 -4.665510E+05  1.969329E+05 -1.287043E+06 -1.009841E-09  5.908745E-11
         9  14  5.219052E+04 -4.808963E+05  9.921688E+04 -1.190306E+06  3.939017E-09 -2.509494E-11
         9  15  1.715683E+04 -4.615326E+05  5.851675E+04 -1.287638E+06  1.179035E-08 -1.331391E-10
         9  16 -1.863512E+06 -8.713713E+06 -1.740011E+06 -1.150991E+06  3.049832E-10 -1.173307E-07
         9  17 -1.650088E+06 -7.610497E+06 -1.245186E+06 -1.114266E+06 -7.460787E-09  3.702238E-08
         9  18 -1.405672E+06 -6.537630E+06 -9.534293E+05 -1.271869E+06 -5.819624E-09  1.862826E-07
         9  19  2.224834E+06  7.844581E+06  2.130443E+06 -1.424769E+06 -1.014292E+05 -8.032626E+05
         9  20  1.751677E+06  6.698418E+06  1.441878E+06 -1.267062E+06 -3.383277E+05 -3.765969E+05
         9  21  1.438223E+06  5.651340E+06  1.069636E+06 -1.303509E+06 -3.907167E+05  4.907687E+04
         9  22  1.829867E+05 -4.665285E+05  1.969873E+05 -1.287032E+06 -1.033094E+05 -1.349069E+05
         9  23  5.231643E+04 -4.808574E+05  9.944757E+04 -1.190282E+06 -3.396981E+05 -8.515636E+04
         9  24  1.732106E+04 -4.614902E+05  5.880601E+04 -1.287627E+06 -3.906778E+05 -3.553369E+04
         9  25 -1.863426E+06 -8.713411E+06 -1.739466E+06 -1.151035E+06 -1.049158E+05  5.246560E+05
         9  26 -1.649953E+06 -7.610421E+06 -1.244890E+06 -1.114322E+06 -3.410085E+05  2.030294E+05
         9  27 -1.405504E+06 -6.537574E+06 -9.531152E+05 -1.271832E+06 -3.906429E+05 -1.193437E+05
        10   1  1.271572E+06  4.942431E+06  9.237100E+05 -1.315070E+06  3.600887E+05 -5.310608E+04
        10   2  1.005708E+06  3.840231E+06  7.034296E+05 -1.203770E+06  3.103556E+05 -1.128474E+05
        10   3  7.598641E+05  2.751688E+06  5.267719E+05 -1.299577E+06  2.399148E+05 -1.727283E+05
        10   4  1.738807E+04 -4.663250E+05  4.747339E+04 -1.290518E+06  3.599659E+05  2.728051E+04
        10   5  1.225104E+04 -4.673742E+05  3.523087E+04 -1.186931E+06  3.098603E+05  9.615760E+03
        10   6  1.996753E+04 -4.631728E+05  3.757978E+04 -1.290534E+06  2.389729E+05 -8.288081E+03
        10   7 -1.238273E+06 -5.846192E+06 -8.295505E+05 -1.266123E+06  3.598487E+05  1.069948E+05
        10   8 -9.821018E+05 -4.756486E+06 -6.333424E+05 -1.170172E+06  3.093692E+05  1.312651E+05
        10   9 -7.204100E+05 -3.667650E+06 -4.517302E+05 -1.281514E+06  2.380324E+05  1.553367E+05
        10  10  1.271432E+06  4.942393E+06  9.234613E+05 -1.315055E+06 -4.961525E-09  6.806670E-08
        10  11  1.005601E+06  3.840192E+06  7.032251E+05 -1.203742E+06  2.008437E-09  3.578933E-08
        10  12  7.597945E+05  2.751641E+06  5.266084E+05 -1.299544E+06 -4.893004E-10 -2.482639E-09
        10  13  1.724873E+04 -4.663606E+05  4.722846E+04 -1.290526E+06  1.507113E-08 -2.846303E-10
        10  14  1.214793E+04 -4.674001E+05  3.505029E+04 -1.186934E+06  1.266435E-08 -4.663174E-11
        10  15  1.990621E+04 -4.631882E+05  3.747238E+04 -1.290532E+06  4.845468E-09 -4.719726E-12
        10  16 -1.238416E+06 -5.846239E+06 -8.298158E+05 -1.266155E+06 -2.158127E-09 -6.819579E-08
        10  17 -9.822093E+05 -4.756530E+06 -6.335551E+05 -1.170205E+06  2.797308E-09 -3.609027E-08
        10  18 -7.204774E+05 -3.667692E+06 -4.518826E+05 -1.281544E+06  1.562208E-09  2.702844E-09
        10  19  1.271572E+06  4.942431E+06  9.237100E+05 -1.315070E+06 -3.600887E+05  5.310608E+04
        10  20  1.005708E+06  3.840231E+06  7.034296E+05 -1.203770E+06 -3.103556E+05  1.128474E+05
        10  21  7.598641E+05  2.751688E+06  5.267719E+05 -1.299577E+06 -2.399148E+05  1.727283E+05
        10  22  1.738807E+04 -4.663250E+05  4.747339E+04 -1.290518E+06 -3.599659E+05 -2.728051E+04
        10  23  1.225104E+04 -4.673742E+05  3.523087E+04 -1.186931E+06 -3.098603E+05 -9.615760E+03
        10  24  1.996753E+04 -4.631728E+05  3.757978E+04 -1.290534E+06 -2.389729E+05  8.288081E+03
        10  25 -1.238273E+06 -5.846192E+06 -8.295505E+05 -1.266123E+06 -3.598487E+05 -1.069948E+05
        10  26 -9.821018E+05 -4.756486E+06 -6.333424E+05 -1.170172E+06 -3.093692E+05 -1.312651E+05
        10  27 -7.204100E+05 -3.667650E+06 -4.517302E+05 -1.281514E+06 -2.380324E+05 -1.553367E+05
        11   1  6.023510E+05  2.062420E+06  4.223827E+05 -1.303088E+06  1.919317E+05 -1.786715E+05
        11   2  3.751613E+05  9.595494E+05  2.806192E+05 -1.154647E+06  1.101593E+05 -2.167445E+05
        11   3  2.083116E+05 -1.241026E+05  1.781029E+05 -1.214765E+06  2.656576E+04 -2.548395E+05
        11   4  2.242742E+04 -4.597429E+05  4.275398E+04 -1.290879E+06  1.909053E+05 -1.475713E+04
        11   5  4.753321E+04 -4.678618E+05  6.655901E+04 -1.186317E+06  1.090484E+05 -4.924419E+04
        11   6  1.324298E+05 -4.586618E+05  1.270527E+05 -1.290266E+06  2.537367E+04 -8.381069E+04
        11   7 -5.577837E+05 -2.975478E+06 -3.369017E+05 -1.278705E+06  1.898824E+05  1.485195E+05
        11   8 -2.801716E+05 -1.893166E+06 -1.474352E+05 -1.217906E+06  1.079188E+05  1.178869E+05
        11   9  5.658036E+04 -7.930334E+05  7.611334E+04 -1.365724E+06  2.413953E+04  8.712955E+04
        11  10  6.023030E+05  2.062376E+06  4.222540E+05 -1.303061E+06  1.566791E-09  2.660587E-09
        11  11  3.751357E+05  9.594958E+05  2.805085E+05 -1.154628E+06 -1.006983E-09 -2.182315E-10
        11  12  2.082934E+05 -1.241725E+05  1.779796E+05 -1.214760E+06 -1.125098E-09 -1.872858E-09
        11  13  2.238825E+04 -4.597529E+05  4.268513E+04 -1.290876E+06  1.350740E-09  6.542488E-11
        11  14  4.751981E+04 -4.678676E+05  6.653216E+04 -1.186313E+06  8.895026E-10  8.766842E-11
        11  15  1.324273E+05 -4.586695E+05  1.270383E+05 -1.290264E+06  5.463256E-10  5.972600E-11
        11  16 -5.578284E+05 -2.975511E+06 -3.370113E+05 -1.278727E+06  1.168591E-09 -2.716290E-09
        11  17 -2.801879E+05 -1.893184E+06 -1.474834E+05 -1.217916E+06  3.921723E-09  1.753919E-10
        11  18  5.657769E+04 -7.930417E+05  7.609793E+04 -1.365726E+06 -1.439981E-10  1.616783E-09
        11  19  6.023510E+05  2.062420E+06  4.223827E+05 -1.303088E+06 -1.919317E+05  1.786715E+05
        11  20  3.751613E+05  9.595494E+05  2.806192E+05 -1.154647E+06 -1.101593E+05  2.167445E+05
        11  21  2.083116E+05 -1.241026E+05  1.781029E+05 -1.214765E+06 -2.656576E+04  2.548395E+05
        11  22  2.242742E+04 -4.597429E+05  4.275398E+04 -1.290879E+06 -1.909053E+05  1.475713E+04
        11  23  4.753321E+04 -4.678618E+05  6.655901E+04 -1.186317E+06 -1.090484E+05  4.924419E+04
        11  24  1.324298E+05 -4.586618E+05  1.270527E+05 -1.290266E+06 -2.537367E+04  8.381069E+04
        11  25 -5.577837E+05 -2.975478E+06 -3.369017E+05 -1.278705E+06 -1.898824E+05 -1.485195E+05
        11  26 -2.801716E+05 -1.893166E+06 -1.474352E+05 -1.217906E+06 -1.079188E+05 -1.178869E+05
        11  27  5.658036E+04 -7.930334E+05  7.611334E+04 -1.365724E+06 -2.413953E+04 -8.712955E+04
        12   1 -4.971086E+06 -1.450585E+06 -8.963315E+05 -1.762280E+06 -5.080660E+05 -1.867218E+05
        12   2 -4.818700E+06 -6.816625E+05 -4.145961E+05 -1.856633E+06 -3.270516E+05 -1.123341E+05
        12   3 -4.943157E+06 -7.046827E+05 -2.778538E+05 -1.792102E+06 -1.430631E+05 -4.584987E+04
        12   4 -4.703505E+06 -1.216720E+06 -7.963245E+05 -1.553290E+06 -5.047296E+05 -1.856089E+05
        12   5 -4.524493E+06 -5.347172E+05 -3.282052E+05 -1.739734E+06 -3.264923E+05 -1.121489E+05