
 stresses (elem, integ.pnt.,sxx,syy,szz,sxy,sxz,syz) for set ELALL and time  0.1000000E+01

         1   1 -5.434486E+06 -6.618219E+05 -8.630645E+05 -6.564187E+04 -5.870143E+05  6.258477E+01
         1   2 -5.301728E+06  1.540302E+05 -3.679907E+05 -1.668889E+04 -3.859424E+05  1.046015E+01
         1   3 -5.432735E+06  2.224647E+04 -2.414195E+05  3.227356E+04 -1.848799E+05 -9.691995E+00
         1   4 -5.434491E+06 -6.618301E+05 -8.630656E+05  6.116967E-08 -5.870143E+05 -4.197202E-10
         1   5 -5.301728E+06  1.540297E+05 -3.679908E+05  1.299759E-07 -3.859424E+05 -5.808252E-10
         1   6 -5.432736E+06  2.224449E+04 -2.414198E+05  1.514218E-07 -1.848799E+05  1.654267E-10
         1   7 -5.434486E+06 -6.618219E+05 -8.630645E+05  6.564187E+04 -5.870143E+05 -6.258477E+01
         1   8 -5.301728E+06  1.540302E+05 -3.679907E+05  1.668889E+04 -3.859424E+05 -1.046015E+01
         1   9 -5.432735E+06  2.224647E+04 -2.414195E+05 -3.227356E+04 -1.848799E+05  9.691995E+00
         1  10 -5.434859E+06 -6.619154E+05 -8.637177E+05 -6.564185E+04  8.492175E-10 -3.890509E-10
         1  11 -5.301889E+06  1.539898E+05 -3.682731E+05 -1.668889E+04 -3.093347E-09  1.301569E-09
         1  12 -5.432772E+06  2.223719E+04 -2.414843E+05  3.227355E+04  9.103341E-10 -5.613045E-10
         1  13 -5.434863E+06 -6.619236E+05 -8.637188E+05  2.678440E-08 -2.064534E-09  3.536580E-11
         1  14 -5.301889E+06  1.539893E+05 -3.682731E+05  4.397702E-08 -2.161535E-09  3.681850E-10
         1  15 -5.432773E+06  2.223522E+04 -2.414846E+05  4.395518E-08 -4.614661E-09 -6.459890E-10
         1  16 -5.434859E+06 -6.619154E+05 -8.637177E+05  6.564185E+04  1.877494E-10 -3.496476E-10
         1  17 -5.301889E+06  1.539898E+05 -3.682731E+05  1.668889E+04 -1.664664E-09  1.055571E-09
         1  18 -5.432772E+06  2.223719E+04 -2.414843E+05 -3.227355E+04 -9.063482E-10  1.092449E-09
         1  19 -5.434486E+06 -6.618219E+05 -8.630645E+05 -6.564187E+04  5.870143E+05 -6.258477E+01
         1  20 -5.301728E+06  1.540302E+05 -3.679907E+05 -1.668889E+04  3.859424E+05 -1.046015E+01
         1  21 -5.432735E+06  2.224647E+04 -2.414195E+05  3.227356E+04  1.848799E+05  9.691995E+00
         1  22 -5.434491E+06 -6.618301E+05 -8.630656E+05  9.554837E-08  5.870143E+05  7.940005E-10
         1  23 -5.301728E+06  1.540297E+05 -3.679908E+05  6.117398E-08  3.859424E+05  1.485127E-09
         1  24 -5.432736E+06  2.224449E+04 -2.414198E+05  8.264597E-08  1.848799E+05 -1.298961E-09
         1  25 -5.434486E+06 -6.618219E+05 -8.630645E+05  6.564187E+04  5.870143E+05  6.258477E+01
         1  26 -5.301728E+06  1.540302E+05 -3.679907E+05  1.668889E+04  3.859424E+05  1.046015E+01
         1  27 -5.432735E+06  2.224647E+04 -2.414195E+05 -3.227356E+04  1.848799E+05 -9.691995E+00
         2   1 -5.384058E+06 -1.003590E+05 -1.997511E+05 -9.502704E+03 -1.451536E+05  2.240352E+00
         2   2 -5.362592E+06  2.339796E+04 -9.515809E+04 -2.251701E+03 -9.528293E+04  3.484651E-01
         2   3 -5.383715E+06  3.284845E+03 -5.920035E+04  4.999342E+03 -4.541109E+04 -3.687423E-01
         2   4 -5.384059E+06 -1.003592E+05 -1.997511E+05  4.232292E-08 -1.451536E+05 -1.692410E-10
         2   5 -5.362592E+06  2.339795E+04 -9.515809E+04  3.533504E-08 -9.528293E+04 -9.972051E-10
         2   6 -5.383715E+06  3.284798E+03 -5.920036E+04  6.835451E-09 -4.541109E+04  1.311074E-09
         2   7 -5.384058E+06 -1.003590E+05 -1.997511E+05  9.502704E+03 -1.451536E+05 -2.240352E+00
         2   8 -5.362592E+06  2.339796E+04 -9.515809E+04  2.251701E+03 -9.528293E+04 -3.484651E-01
         2   9 -5.383715E+06  3.284845E+03 -5.920035E+04 -4.999342E+03 -4.541109E+04  3.687423E-01
         2  10 -5.384081E+06 -1.003647E+05 -1.997911E+05 -9.502703E+03  9.588184E-10  3.780700E-10
         2  11 -5.362602E+06  2.339550E+04 -9.517530E+04 -2.251701E+03 -2.508269E-09  1.922184E-11
         2  12 -5.383718E+06  3.284286E+03 -5.920426E+04  4.999341E+03  2.288789E-10 -1.421904E-09
         2  13 -5.384081E+06 -1.003649E+05 -1.997911E+05 -6.083862E-08 -4.177072E-09 -5.285604E-10
         2  14 -5.362602E+06  2.339549E+04 -9.517530E+04  8.691757E-08  2.451459E-09 -6.945442E-10
         2  15 -5.383718E+06  3.284239E+03 -5.920427E+04 -4.903326E-08  4.318965E-09  6.563758E-11
         2  16 -5.384081E+06 -1.003647E+05 -1.997911E+05  9.502703E+03  2.130657E-09  2.192030E-10
         2  17 -5.362602E+06  2.339550E+04 -9.517530E+04  2.251701E+03  2.300829E-10  1.793141E-10
         2  18 -5.383718E+06  3.284286E+03 -5.920426E+04 -4.999341E+03  2.236386E-09 -1.206753E-09
         2  19 -5.384058E+06 -1.003590E+05 -1.997511E+05 -9.502704E+03  1.451536E+05 -2.240352E+00
         2  20 -5.362592E+06  2.339796E+04 -9.515809E+04 -2.251701E+03  9.528293E+04 -3.484651E-01
         2  21 -5.383715E+06  3.284845E+03 -5.920035E+04  4.999342E+03  4.541109E+04  3.687423E-01
         2  22 -5.384059E+06 -1.003592E+05 -1.997511E+05  4.231021E-08  1.451536E+05 -1.055457E-09
         2  23 -5.362592E+06  2.339795E+04 -9.515809E+04  1.728970E-07  9.528293E+04  3.803488E-10
         2  24 -5.383715E+06  3.284798E+03 -5.920036E+04  1.744920E-07  4.541109E+04 -6.171622E-10
         2  25 -5.384058E+06 -1.003590E+05 -1.997511E+05  9.502704E+03  1.451536E+05  2.240352E+00
         2  26 -5.362592E+06  2.339796E+04 -9.515809E+04  2.251701E+03  9.528293E+04  3.484651E-01
         2  27 -5.383715E+06  3.284845E+03 -5.920035E+04 -4.999342E+03  4.541109E+04 -3.687423E-01
         3   1 -5.375894E+06 -1.513544E+04 -4.743827E+04 -1.322792E+03 -3.580052E+04  7.691722E-02
         3   2 -5.372312E+06  3.546693E+03 -2.439961E+04 -2.709296E+02 -2.332559E+04  1.026433E-02
         3   3 -5.375826E+06  4.429343E+02 -1.498121E+04  7.809123E+02 -1.085070E+04 -1.376271E-02
         3   4 -5.375894E+06 -1.513545E+04 -4.743827E+04  5.326376E-08 -3.580052E+04  1.172856E-09
         3   5 -5.372312E+06  3.546693E+03 -2.439961E+04 -5.787037E-08 -2.332559E+04 -3.417545E-10
         3   6 -5.375826E+06  4.429331E+02 -1.498121E+04 -4.436319E-08 -1.085070E+04 -7.106163E-11
         3   7 -5.375894E+06 -1.513544E+04 -4.743827E+04  1.322792E+03 -3.580052E+04 -7.691722E-02
         3   8 -5.372312E+06  3.546693E+03 -2.439961E+04  2.709296E+02 -2.332559E+04 -1.026433E-02
         3   9 -5.375826E+06  4.429343E+02 -1.498121E+04 -7.809123E+02 -1.085070E+04  1.376271E-02
         3  10 -5.375896E+06 -1.513579E+04 -4.744070E+04 -1.322792E+03 -4.956340E-09  1.304567E-10
         3  11 -5.372312E+06  3.546545E+03 -2.440064E+04 -2.709296E+02 -4.926820E-09  5.676194E-11
         3  12 -5.375826E+06  4.429023E+02 -1.498143E+04  7.809123E+02 -3.822172E-09  1.757181E-10
         3  13 -5.375896E+06 -1.513579E+04 -4.744070E+04  5.327636E-08 -4.244021E-09  5.938821E-10
         3  14 -5.372312E+06  3.546545E+03 -2.440064E+04  4.529718E-08  1.074615E-09  1.024289E-09
         3  15 -5.375826E+06  4.429012E+02 -1.498143E+04 -1.002383E-07 -1.075204E-09  4.323411E-10
         3  16 -5.375896E+06 -1.513579E+04 -4.744070E+04  1.322792E+03  3.250997E-09 -1.282520E-10
         3  17 -5.372312E+06  3.546545E+03 -2.440064E+04  2.709296E+02  4.775065E-09  1.563813E-09
         3  18 -5.375826E+06  4.429023E+02 -1.498143E+04 -7.809123E+02 -8.514943E-10  1.313097E-09
         3  19 -5.375894E+06 -1.513544E+04 -4.743827E+04 -1.322792E+03  3.580052E+04 -7.691721E-02
         3  20 -5.372312E+06  3.546693E+03 -2.439961E+04 -2.709296E+02  2.332559E+04 -1.026433E-02
         3  21 -5.375826E+06  4.429343E+02 -1.498121E+04  7.809123E+02  1.085070E+04  1.376271E-02
         3  22 -5.375894E+06 -1.513545E+04 -4.743827E+04  1.908307E-07  3.580052E+04 -1.520315E-10
         3  23 -5.372312E+06  3.546693E+03 -2.439961E+04  2.172435E-07  2.332559E+04  1.640892E-09
         3  24 -5.375826E+06  4.429331E+02 -1.498121E+04 -9.966240E-09  1.085070E+04  9.383887E-11
         3  25 -5.375894E+06 -1.513544E+04 -4.743827E+04  1.322792E+03  3.580052E+04  7.691721E-02
         3  26 -5.372312E+06  3.546693E+03 -2.439961E+04  2.709296E+02  2.332559E+04  1.026433E-02
         3  27 -5.375826E+06  4.429343E+02 -1.498121E+04 -7.809123E+02  1.085070E+04 -1.376271E-02
         4   1 -5.374561E+06 -2.256465E+03 -1.197604E+04 -1.825970E+02 -8.420329E+03  2.497274E-03
         4   2 -5.373871E+06  5.851483E+02 -7.098197E+03 -2.363344E+01 -4.847862E+03  1.860915E-04
         4   3 -5.374549E+06 -1.605638E+02 -5.458201E+03  1.353322E+02 -1.275330E+03 -2.803250E-04
         4   4 -5.374561E+06 -2.256465E+03 -1.197604E+04  2.517584E-07 -8.420329E+03  4.699045E-10
         4   5 -5.373871E+06  5.851483E+02 -7.098197E+03  1.628745E-08 -4.847862E+03  2.455147E-09
         4   6 -5.374549E+06 -1.605638E+02 -5.458201E+03  1.246962E-07 -1.275330E+03 -1.502517E-10
         4   7 -5.374561E+06 -2.256465E+03 -1.197604E+04  1.825970E+02 -8.420329E+03 -2.497270E-03
         4   8 -5.373871E+06  5.851483E+02 -7.098197E+03  2.363344E+01 -4.847862E+03 -1.860895E-04
         4   9 -5.374549E+06 -1.605638E+02 -5.458201E+03 -1.353322E+02 -1.275330E+03  2.803204E-04
         4  10 -5.374561E+06 -2.256484E+03 -1.197617E+04 -1.825970E+02  8.677528E-10 -1.484286E-09
         4  11 -5.373871E+06  5.851419E+02 -7.098241E+03 -2.363344E+01  3.982672E-09  1.086820E-09
         4  12 -5.374549E+06 -1.605642E+02 -5.458204E+03  1.353322E+02  3.892562E-09  1.560643E-09
         4  13 -5.374561E+06 -2.256484E+03 -1.197617E+04 -9.212948E-08 -2.593320E-09  4.403366E-10
         4  14 -5.373871E+06  5.851419E+02 -7.098241E+03  6.787124E-08 -1.906249E-09  1.719053E-09
         4  15 -5.374549E+06 -1.605642E+02 -5.458204E+03  4.732217E-08  1.952358E-09 -2.795531E-10
         4  16 -5.374561E+06 -2.256484E+03 -1.197617E+04  1.825970E+02 -3.662129E-09  2.079933E-10
         4  17 -5.373871E+06  5.851419E+02 -7.098241E+03  2.363344E+01 -8.289954E-10  1.273446E-09
         4  18 -5.374549E+06 -1.605642E+02 -5.458204E+03 -1.353322E+02 -2.731533E-09  1.465934E-09
         4  19 -5.374561E+06 -2.256465E+03 -1.197604E+04 -1.825970E+02  8.420329E+03 -2.497273E-03
         4  20 -5.373871E+06  5.851483E+02 -7.098197E+03 -2.363344E+01  4.847862E+03 -1.860847E-04
         4  21 -5.374549E+06 -1.605638E+02 -5.458201E+03  1.353322E+02  1.275330E+03  2.803269E-04
         4  22 -5.374561E+06 -2.256465E+03 -1.197604E+04  1.141982E-07  8.420329E+03  6.476420E-10
         4  23 -5.373871E+06  5.851483E+02 -7.098197E+03  1.628222E-08  4.847862E+03  3.768104E-10
         4  24 -5.374549E+06 -1.605638E+02 -5.458201E+03  2.153921E-08  1.275330E+03 -8.461365E-10
         4  25 -5.374561E+06 -2.256465E+03 -1.197604E+04  1.825970E+02  8.420329E+03  2.497273E-03
         4  26 -5.373871E+06  5.851483E+02 -7.098197E+03  2.363344E+01  4.847862E+03  1.860833E-04
         4  27 -5.374549E+06 -1.605638E+02 -5.458201E+03 -1.353322E+02  1.275330E+03 -2.803286E-04
         5   1 -5.374478E+06 -2.881415E+02 -5.198112E+03 -1.015675E+02 -3.145203E+02  5.189372E-05
         5   2 -5.373957E+06  4.403351E+02 -5.641908E+03  1.663246E+01  2.521902E+03  6.813089E-05
         5   3 -5.374485E+06 -1.530052E+03 -8.619090E+03  1.348325E+02  5.358320E+03  1.173459E-03
         5   4 -5.374478E+06 -2.881416E+02 -5.198112E+03  2.794959E-07 -3.145204E+02 -8.920948E-10
         5   5 -5.373957E+06  4.403351E+02 -5.641908E+03  6.611625E-08  2.521902E+03  1.686312E-09
         5   6 -5.374485E+06 -1.530052E+03 -8.619091E+03  1.049169E-09  5.358320E+03  1.946882E-09
         5   7 -5.374478E+06 -2.881415E+02 -5.198112E+03  1.015675E+02 -3.145203E+02 -5.188942E-05
         5   8 -5.373957E+06  4.403351E+02 -5.641908E+03 -1.663246E+01  2.521902E+03 -6.812954E-05
         5   9 -5.374485E+06 -1.530052E+03 -8.619090E+03 -1.348325E+02  5.358320E+03 -1.173457E-03
         5  10 -5.374478E+06 -2.881416E+02 -5.198113E+03 -1.015675E+02  2.925504E-09  1.749617E-09
         5  11 -5.373957E+06  4.403334E+02 -5.641920E+03  1.663246E+01  3.126559E-09  6.785927E-10
         5  12 -5.374485E+06 -1.530060E+03 -8.619145E+03  1.348325E+02 -1.329403E-10  7.666555E-10
         5  13 -5.374478E+06 -2.881416E+02 -5.198113E+03  9.036997E-08  2.568302E-09 -2.757448E-10
         5  14 -5.373957E+06  4.403334E+02 -5.641920E+03  3.173301E-08 -2.913848E-09  1.081412E-09
         5  15 -5.374485E+06 -1.530060E+03 -8.619145E+03 -1.128689E-07  1.731363E-09  1.283736E-09
         5  16 -5.374478E+06 -2.881416E+02 -5.198113E+03  1.015675E+02 -7.479585E-09 -9.537467E-10
         5  17 -5.373957E+06  4.403334E+02 -5.641920E+03 -1.663246E+01 -1.991171E-09  3.101972E-09
         5  18 -5.374485E+06 -1.530060E+03 -8.619145E+03 -1.348325E+02 -2.021538E-10  3.268849E-10
         5  19 -5.374478E+06 -2.881415E+02 -5.198112E+03 -1.015675E+02  3.145204E+02 -5.188780E-05
         5  20 -5.373957E+06  4.403351E+02 -5.641908E+03  1.663246E+01 -2.521902E+03 -6.812497E-05
         5  21 -5.374485E+06 -1.530052E+03 -8.619090E+03  1.348325E+02 -5.358320E+03 -1.173458E-03
         5  22 -5.374478E+06 -2.881416E+02 -5.198112E+03  5.598049E-08  3.145204E+02 -6.389308E-10
         5  23 -5.373957E+06  4.403351E+02 -5.641908E+03  1.005141E-07 -2.521902E+03 -5.506493E-10
         5  24 -5.374485E+06 -1.530052E+03 -8.619091E+03  1.106445E-07 -5.358320E+03 -5.466938E-10
         5  25 -5.374478E+06 -2.881415E+02 -5.198112E+03  1.015675E+02  3.145203E+02  5.188294E-05
         5  26 -5.373957E+06  4.403351E+02 -5.641908E+03 -1.663246E+01 -2.521902E+03  6.812172E-05
         5  27 -5.374485E+06 -1.530052E+03 -8.619090E+03 -1.348325E+02 -5.358320E+03  1.173455E-03
         6   1 -5.375324E+06  2.755801E+02 -1.055181E+04 -5.314563E+02  7.086598E+03 -6.117147E-03
         6   2 -5.372923E+06  2.418168E+03 -1.679610E+04  1.849402E+02  1.567106E+04  4.707301E-03
         6   3 -5.375370E+06 -1.029262E+04 -3.237873E+04  9.013281E+02  2.425534E+04  3.550858E-02
         6   4 -5.375324E+06  2.755796E+02 -1.055181E+04  4.315011E-08  7.086598E+03  1.072045E-09
         6   5 -5.372923E+06  2.418168E+03 -1.679610E+04  9.505926E-08  1.567106E+04  8.291209E-11
         6   6 -5.375370E+06 -1.029262E+04 -3.237873E+04  9.537733E-08  2.425534E+04  1.246357E-09
         6   7 -5.375324E+06  2.755801E+02 -1.055181E+04  5.314563E+02  7.086598E+03  6.117150E-03
         6   8 -5.372923E+06  2.418168E+03 -1.679610E+04 -1.849402E+02  1.567106E+04 -4.707304E-03
         6   9 -5.375370E+06 -1.029262E+04 -3.237873E+04 -9.013281E+02  2.425534E+04 -3.550857E-02
         6  10 -5.375324E+06  2.755665E+02 -1.055190E+04 -5.314563E+02 -2.337723E-09  1.772050E-09
         6  11 -5.372923E+06  2.418101E+03 -1.679656E+04  1.849402E+02  1.490485E-09 -6.763371E-10
         6  12 -5.375371E+06 -1.029278E+04 -3.237985E+04  9.013281E+02  5.955064E-09 -3.152630E-10
         6  13 -5.375324E+06  2.755660E+02 -1.055190E+04 -2.563635E-08 -2.501014E-09  2.042962E-10
         6  14 -5.372923E+06  2.418101E+03 -1.679656E+04 -8.108911E-09 -4.857910E-10 -1.282358E-09
         6  15 -5.375371E+06 -1.029278E+04 -3.237985E+04 -6.794199E-08  2.394075E-10  2.040974E-10
         6  16 -5.375324E+06  2.755665E+02 -1.055190E+04  5.314563E+02  2.934885E-09  1.060761E-09
         6  17 -5.372923E+06  2.418101E+03 -1.679656E+04 -1.849402E+02 -1.438965E-09 -1.351547E-09
         6  18 -5.375371E+06 -1.029278E+04 -3.237985E+04 -9.013281E+02 -5.272808E-10  4.520318E-10
         6  19 -5.375324E+06  2.755801E+02 -1.055181E+04 -5.314563E+02 -7.086598E+03  6.117152E-03
         6  20 -5.372923E+06  2.418168E+03 -1.679610E+04  1.849402E+02 -1.567106E+04 -4.707298E-03
         6  21 -5.375370E+06 -1.029262E+04 -3.237873E+04  9.013281E+02 -2.425534E+04 -3.550857E-02
         6  22 -5.375324E+06  2.755796E+02 -1.055181E+04  1.806717E-07 -7.086598E+03 -5.825784E-10
         6  23 -5.372923E+06  2.418168E+03 -1.679610E+04 -7.688419E-08 -1.567106E+04 -7.077375E-10
         6  24 -5.375370E+06 -1.029262E+04 -3.237873E+04 -4.429568E-08 -2.425534E+04 -4.344582E-10
         6  25 -5.375324E+06  2.755801E+02 -1.055181E+04  5.314563E+02 -7.086598E+03 -6.117156E-03
         6  26 -5.372923E+06  2.418168E+03 -1.679610E+04 -1.849402E+02 -1.567106E+04  4.707300E-03
         6  27 -5.375370E+06 -1.029262E+04 -3.237873E+04 -9.013281E+02 -2.425534E+04  3.550857E-02
         7   1 -5.380685E+06  2.230457E+03 -4.035037E+04 -3.399666E+03  3.081047E+04 -1.701302E-01
         7   2 -5.366318E+06  1.591274E+04 -6.476808E+04  1.531566E+03  6.475031E+04  1.610699E-01
         7   3 -5.380920E+06 -6.825144E+04 -1.358817E+05  6.462853E+03  9.869011E+04  1.035953E+00
         7   4 -5.380685E+06  2.230435E+03 -4.035037E+04  1.097414E-07  3.081047E+04  1.805278E-10
         7   5 -5.366318E+06  1.591273E+04 -6.476808E+04  1.165591E-08  6.475031E+04  2.921062E-10
         7   6 -5.380920E+06 -6.825152E+04 -1.358818E+05 -1.057879E-07  9.869011E+04 -9.891484E-10
         7   7 -5.380685E+06  2.230457E+03 -4.035037E+04  3.399666E+03  3.081047E+04  1.701302E-01
         7   8 -5.366318E+06  1.591274E+04 -6.476808E+04 -1.531566E+03  6.475031E+04 -1.610699E-01
         7   9 -5.380920E+06 -6.825144E+04 -1.358817E+05 -6.462853E+03  9.869011E+04 -1.035953E+00
         7  10 -5.380686E+06  2.230200E+03 -4.035217E+04 -3.399666E+03  3.104915E-09  7.798509E-10
         7  11 -5.366323E+06  1.591160E+04 -6.477603E+04  1.531566E+03 -3.452221E-09 -5.508502E-10
         7  12 -5.380931E+06 -6.825408E+04 -1.359002E+05  6.462853E+03 -2.372574E-09 -6.418202E-10
         7  13 -5.380686E+06  2.230178E+03 -4.035217E+04  2.375550E-08  3.505151E-10  6.442926E-10
         7  14 -5.366323E+06  1.591159E+04 -6.477603E+04 -5.712794E-08 -4.540581E-09  5.644440E-10
         7  15 -5.380931E+06 -6.825416E+04 -1.359002E+05 -1.036229E-07  2.384339E-09  6.516396E-11
         7  16 -5.380686E+06  2.230200E+03 -4.035217E+04  3.399666E+03 -9.557188E-10  7.787495E-10
         7  17 -5.366323E+06  1.591160E+04 -6.477603E+04 -1.531566E+03 -2.356056E-09  1.421803E-09
         7  18 -5.380931E+06 -6.825408E+04 -1.359002E+05 -6.462853E+03  9.383647E-10  1.647839E-09
         7  19 -5.380685E+06  2.230457E+03 -4.035037E+04 -3.399666E+03 -3.081047E+04  1.701302E-01
         7  20 -5.366318E+06  1.591274E+04 -6.476808E+04  1.531566E+03 -6.475031E+04 -1.610699E-01
         7  21 -5.380920E+06 -6.825144E+04 -1.358817E+05  6.462853E+03 -9.869011E+04 -1.035953E+00
         7  22 -5.380685E+06  2.230435E+03 -4.035037E+04  7.530846E-08 -3.081047E+04  9.719100E-10
         7  23 -5.366318E+06  1.591273E+04 -6.476808E+04 -5.713115E-08 -6.475031E+04  1.274385E-09
         7  24 -5.380920E+06 -6.825152E+04 -1.358818E+05 -2.408128E-08 -9.869011E+04  1.387510E-09
         7  25 -5.380685E+06  2.230457E+03 -4.035037E+04  3.399666E+03 -3.081047E+04 -1.701302E-01
         7  26 -5.366318E+06  1.591274E+04 -6.476808E+04 -1.531566E+03 -6.475031E+04  1.610699E-01
         7  27 -5.380920E+06 -6.825144E+04 -1.358817E+05 -6.462853E+03 -9.869011E+04  1.035953E+00
         8   1 -5.414025E+06  1.512575E+04 -1.642210E+05 -2.194755E+04  1.257186E+05 -4.481789E+00
         8   2 -5.324941E+06  1.047461E+05 -2.503439E+05  1.134805E+04  2.624500E+05  4.836971E+00
         8   3 -5.415244E+06 -4.500836E+05 -5.871040E+05  4.463960E+04  3.991872E+05  2.894259E+01
         8   4 -5.414026E+06  1.512483E+04 -1.642211E+05  9.767459E-08  1.257186E+05 -1.125204E-09
         8   5 -5.324941E+06  1.047459E+05 -2.503439E+05 -1.281088E-08  2.624500E+05  2.340339E-09
         8   6 -5.415246E+06 -4.500874E+05 -5.871045E+05 -2.943790E-09  3.991872E+05  5.855136E-10
         8   7 -5.414025E+06  1.512575E+04 -1.642210E+05  2.194755E+04  1.257186E+05  4.481789E+00
         8   8 -5.324941E+06  1.047461E+05 -2.503439E+05 -1.134805E+04  2.624500E+05 -4.836971E+00
         8   9 -5.415244E+06 -4.500836E+05 -5.871040E+05 -4.463960E+04  3.991872E+05 -2.894259E+01
         8  10 -5.414043E+06  1.512146E+04 -1.642510E+05 -2.194754E+04 -1.481513E-09  1.155403E-09
         8  11 -5.325015E+06  1.047274E+05 -2.504745E+05  1.134804E+04 -2.326761E-09  1.738407E-09
         8  12 -5.415417E+06 -4.501268E+05 -5.874060E+05  4.463959E+04  2.654737E-09  3.714095E-11
         8  13 -5.414043E+06  1.512054E+04 -1.642511E+05 -7.428100E-08  2.148941E-09  2.545068E-10
         8  14 -5.325016E+06  1.047272E+05 -2.504745E+05 -7.300548E-08 -1.909316E-09  8.158360E-10
         8  15 -5.415419E+06 -4.501306E+05 -5.874066E+05 -7.171195E-08 -3.282778E-09  4.132474E-10
         8  16 -5.414043E+06  1.512146E+04 -1.642510E+05  2.194754E+04  7.679842E-10  1.002011E-09
         8  17 -5.325015E+06  1.047274E+05 -2.504745E+05 -1.134804E+04 -3.247343E-12  4.109507E-10
         8  18 -5.415417E+06 -4.501268E+05 -5.874060E+05 -4.463959E+04 -5.390572E-10 -7.217981E-10
         8  19 -5.414025E+06  1.512575E+04 -1.642210E+05 -2.194755E+04 -1.257186E+05  4.481789E+00
         8  20 -5.324941E+06  1.047461E+05 -2.503439E+05  1.134805E+04 -2.624500E+05 -4.836971E+00
         8  21 -5.415244E+06 -4.500836E+05 -5.871040E+05  4.463960E+04 -3.991872E+05 -2.894259E+01
         8  22 -5.414026E+06  1.512483E+04 -1.642211E+05  8.047403E-08 -1.257186E+05  1.816516E-09
         8  23 -5.324941E+06  1.047459E+05 -2.503439E+05 -1.281118E-08 -2.624500E+05 -9.344555E-10
         8  24 -5.415246E+06 -4.500874E+05 -5.871045E+05 -3.731702E-08 -3.991872E+05  1.741802E-10
         8  25 -5.414025E+06  1.512575E+04 -1.642210E+05  2.194755E+04 -1.257186E+05 -4.481789E+00
         8  26 -5.324941E+06  1.047461E+05 -2.503439E+05 -1.134805E+04 -2.624500E+05  4.836971E+00
         8  27 -5.415244E+06 -4.500836E+05 -5.871040E+05 -4.463960E+04 -3.991872E+05  2.894259E+01
         9   1  2.251412E+06  8.069619E+06  2.138739E+06 -1.600520E+06  1.002637E+05  8.441107E+05
         9   2  1.794554E+06  6.878792E+06  1.426341E+06 -1.464012E+06  3.375112E+05  3.945621E+05
         9   3  1.475036E+06  5.784099E+06  1.039303E+06 -1.507440E+06  3.949956E+05 -5.386943E+04
         9   4  1.426831E+05 -5.232966E+05  1.501596E+05 -1.485305E+06  1.025189E+05  1.013468E+05
         9   5  4.792094E+04 -5.329303E+05  7.821094E+04 -1.395595E+06  3.391043E+05  6.276229E+04
         9   6  2.048986E+04 -5.178352E+05  4.865924E+04 -1.485774E+06  3.950025E+05  2.434597E+04
         9   7 -1.970886E+06 -9.047342E+06 -1.841309E+06 -1.371561E+06  1.045262E+05 -6.313189E+05
         9   8 -1.701728E+06 -7.891367E+06 -1.271714E+06 -1.327912E+06  3.406390E+05 -2.652193E+05
         9   9 -1.436010E+06 -6.780404E+06 -9.429398E+05 -1.464248E+06  3.950146E+05  1.018014E+05
         9  10  2.251213E+06  8.068859E+06  2.137397E+06 -1.600589E+06 -1.841852E-10  3.617984E-08
         9  11  1.794390E+06  6.878595E+06  1.425836E+06 -1.464119E+06 -2.315991E-09  3.352914E-09
         9  12  1.474868E+06  5.784054E+06  1.039004E+06 -1.507423E+06 -5.093922E-09 -2.912037E-08
         9  13  1.426690E+05 -5.233105E+05  1.501204E+05 -1.485313E+06 -1.120565E-09  7.045503E-11
         9  14  4.779637E+04 -5.329655E+05  7.798728E+04 -1.395613E+06 -1.907265E-09  7.127565E-11
         9  15  2.032217E+04 -5.178777E+05  4.836489E+04 -1.485782E+06  8.668328E-09  1.258680E-10
         9  16 -1.971007E+06 -9.047777E+06 -1.842088E+06 -1.371508E+06  2.110348E-11 -3.574052E-08
         9  17 -1.701872E+06 -7.891474E+06 -1.272065E+06 -1.327839E+06 -9.428617E-09 -3.349405E-09
         9  18 -1.436181E+06 -6.780458E+06 -9.432530E+05 -1.464281E+06 -4.138344E-09  2.884915E-08
         9  19  2.251412E+06  8.069619E+06  2.138739E+06 -1.600520E+06 -1.002637E+05 -8.441107E+05
         9  20  1.794554E+06  6.878792E+06  1.426341E+06 -1.464012E+06 -3.375112E+05 -3.945621E+05
         9  21  1.475036E+06  5.784099E+06  1.039303E+06 -1.507440E+06 -3.949956E+05  5.386943E+04
         9  22  1.426831E+05 -5.232966E+05  1.501596E+05 -1.485305E+06 -1.025189E+05 -1.013468E+05
         9  23  4.792094E+04 -5.329303E+05  7.821094E+04 -1.395595E+06 -3.391043E+05 -6.276229E+04
         9  24  2.048986E+04 -5.178352E+05  4.865924E+04 -1.485774E+06 -3.950025E+05 -2.434597E+04
         9  25 -1.970886E+06 -9.047342E+06 -1.841309E+06 -1.371561E+06 -1.045262E+05  6.313189E+05
         9  26 -1.701728E+06 -7.891367E+06 -1.271714E+06 -1.327912E+06 -3.406390E+05  2.652193E+05
         9  27 -1.436010E+06 -6.780404E+06 -9.429398E+05 -1.464248E+06 -3.950146E+05 -1.018014E+05
        10   1  1.302364E+06  5.058256E+06  8.927741E+05 -1.514309E+06  3.673808E+05 -6.851073E+04
        10   2  1.028548E+06  3.908978E+06  6.740896E+05 -1.407895E+06  3.185887E+05 -1.379431E+05
        10   3  7.775986E+05  2.775534E+06  5.060462E+05 -1.494589E+06  2.470870E+05 -2.074797E+05
        10   4  1.920924E+04 -5.205219E+05  4.100031E+04 -1.488729E+06  3.672488E+05  1.725437E+04
        10   5  1.649122E+04 -5.216496E+05  3.546954E+04 -1.392131E+06  3.180232E+05 -5.560722E+02
        10   6  2.783006E+04 -5.171120E+05  4.493408E+04 -1.488720E+06  2.460039E+05 -1.859041E+04
        10   7 -1.265436E+06 -6.068283E+06 -8.114191E+05 -1.463314E+06  3.671229E+05  1.022829E+05
        10   8 -9.964515E+05 -4.932495E+06 -6.033902E+05 -1.376439E+06  3.174616E+05  1.358965E+05
        10   9 -7.224022E+05 -3.798721E+06 -4.161845E+05 -1.482856E+06  2.449202E+05  1.693446E+05
        10  10  1.302218E+06  5.058215E+06  8.925120E+05 -1.514289E+06 -3.333418E-09 -1.237352E-07
        10  11  1.028434E+06  3.908931E+06  6.738638E+05 -1.407859E+06 -1.776883E-09 -2.527575E-08
        10  12  7.775218E+05  2.775472E+06  5.058515E+05 -1.494548E+06 -6.847544E-09  7.417421E-08
        10  13  1.906435E+04 -5.205584E+05  4.074630E+04 -1.488734E+06  6.039322E-09 -4.037317E-11
        10  14  1.638264E+04 -5.216767E+05  3.527953E+04 -1.392131E+06  1.543869E-08 -5.747138E-11
        10  15  2.776502E+04 -5.171286E+05  4.481979E+04 -1.488717E+06  1.692397E-08  8.956741E-11
        10  16 -1.265584E+06 -6.068331E+06 -8.116926E+05 -1.463345E+06 -7.778109E-09  1.228067E-07
        10  17 -9.965648E+05 -4.932542E+06 -6.036149E+05 -1.376474E+06 -1.706054E-09  2.464086E-08
        10  18 -7.224745E+05 -3.798768E+06 -4.163519E+05 -1.482889E+06 -5.051498E-09 -7.396545E-08
        10  19  1.302364E+06  5.058256E+06  8.927741E+05 -1.514309E+06 -3.673808E+05  6.851073E+04
        10  20  1.028548E+06  3.908978E+06  6.740896E+05 -1.407895E+06 -3.185887E+05  1.379431E+05
        10  21  7.775986E+05  2.775534E+06  5.060462E+05 -1.494589E+06 -2.470870E+05  2.074797E+05
        10  22  1.920924E+04 -5.205219E+05  4.100031E+04 -1.488729E+06 -3.672488E+05 -1.725437E+04
        10  23  1.649122E+04 -5.216496E+05  3.546954E+04 -1.392131E+06 -3.180232E+05  5.560722E+02
        10  24  2.783006E+04 -5.171120E+05  4.493408E+04 -1.488720E+06 -2.460039E+05  1.859041E+04
        10  25 -1.265436E+06 -6.068283E+06 -8.114191E+05 -1.463314E+06 -3.671229E+05 -1.022829E+05
        10  26 -9.964515E+05 -4.932495E+06 -6.033902E+05 -1.376439E+06 -3.174616E+05 -1.358965E+05
        10  27 -7.224022E+05 -3.798721E+06 -4.161845E+05 -1.482856E+06 -2.449202E+05 -1.693446E+05
        11   1  6.204557E+05  2.069205E+06  4.113287E+05 -1.496836E+06  1.975994E+05 -2.161338E+05
        11   2  3.976721E+05  9.178322E+05  2.879747E+05 -1.339922E+06  1.133093E+05 -2.664910E+05
        11   3  2.496279E+05 -2.086102E+05  2.155920E+05 -1.377714E+06  2.754827E+04 -3.168433E+05
        11   4  3.327689E+04 -5.124933E+05  5.457554E+04 -1.489090E+06  1.964160E+05 -2.642666E+04
        11   5  7.110504E+04 -5.233866E+05  9.159577E+04 -1.391378E+06  1.120483E+05 -7.357606E+04
        11   6  1.831884E+05 -5.113322E+05  1.772551E+05 -1.488288E+06  2.621817E+04 -1.207988E+05
        11   7 -5.541761E+05 -3.087359E+06 -3.021200E+05 -1.481360E+06  1.952339E+05  1.625290E+05
        11   8 -2.555210E+05 -1.962406E+06 -1.046629E+05 -1.442703E+06  1.107532E+05  1.189120E+05
        11   9  1.168125E+05 -8.138506E+05  1.390691E+05 -1.598805E+06  2.481773E+04  7.515475E+04
        11  10  6.204014E+05  2.069145E+06  4.111683E+05 -1.496802E+06 -8.229752E-10 -5.080833E-08
        11  11  3.976393E+05  9.177527E+05  2.878176E+05 -1.339898E+06 -2.950392E-09  1.333001E-08
        11  12  2.496001E+05 -2.087182E+05  2.154020E+05 -1.377707E+06 -1.618367E-09  7.569108E-08
        11  13  3.323531E+04 -5.125043E+05  5.450181E+04 -1.489086E+06  1.154091E-08  1.420256E-12
        11  14  7.109014E+04 -5.233957E+05  9.156210E+04 -1.391371E+06  1.413555E-08 -3.494414E-11
        11  15  1.831837E+05 -5.113481E+05  1.772264E+05 -1.488285E+06  3.428376E-09  6.712332E-11
        11  16 -5.542242E+05 -3.087398E+06 -3.022419E+05 -1.481386E+06 -5.134418E-09  5.073802E-08
        11  17 -2.555380E+05 -1.962425E+06 -1.047127E+05 -1.442714E+06 -1.044283E-09 -1.370238E-08
        11  18  1.168103E+05 -8.138568E+05  1.390572E+05 -1.598807E+06  2.073623E-09 -7.562730E-08
        11  19  6.204557E+05  2.069205E+06  4.113287E+05 -1.496836E+06 -1.975994E+05  2.161338E+05
        11  20  3.976721E+05  9.178322E+05  2.879747E+05 -1.339922E+06 -1.133093E+05  2.664910E+05
        11  21  2.496279E+05 -2.086102E+05  2.155920E+05 -1.377714E+06 -2.754827E+04  3.168433E+05
        11  22  3.327689E+04 -5.124933E+05  5.457554E+04 -1.489090E+06 -1.964160E+05  2.642666E+04
        11  23  7.110504E+04 -5.233866E+05  9.159577E+04 -1.391378E+06 -1.120483E+05  7.357606E+04
        11  24  1.831884E+05 -5.113322E+05  1.772551E+05 -1.488288E+06 -2.621817E+04  1.207988E+05
        11  25 -5.541761E+05 -3.087359E+06 -3.021200E+05 -1.481360E+06 -1.952339E+05 -1.625290E+05
        11  26 -2.555210E+05 -1.962406E+06 -1.046629E+05 -1.442703E+06 -1.107532E+05 -1.189120E+05
        11  27  1.168125E+05 -8.138506E+05  1.390691E+05 -1.598805E+06 -2.481773E+04 -7.515475E+04
        12   1 -6.288864E+06 -1.874552E+06 -1.233117E+06 -2.182325E+06 -7.213366E+05 -2.671708E+05
        12   2 -6.068604E+06 -8.005538E+05 -5.505627E+05 -2.351894E+06 -4.642946E+05 -1.655370E+05
        12   3 -6.264824E+06 -8.697403E+05 -3.655491E+05 -2.274036E+06 -2.047007E+05 -7.068899E+04
        12   4 -6.054814E+06 -1.630001E+06 -1.137298E+06 -1.958630E+06 -7.191644E+05 -2.665868E+05
        12   5 -5.788680E+06 -6.535575E+05 -4.661506E+05 -2.233597E+06 -4.640380E+05 -1.654803E+05