    1C
    1UUSER                                                              
    1UDATE              11.october.2022                                 
    1UTIME              18:37:13                                        
    1UHOST                                                              
    1UPGM               CalculiX                                        
    1UVERSION           Version 2.20                             
    1UCOMPILETIME       Sun Jul 31 18:08:37 CEST 2022                    
    1UDIR                                                               
    1UDBN                                                               
    1UMAT    1MESH_MATERIAL                                             
    2C                           593                                     1
 -1         1 0.00000E+00 0.00000E+00 0.00000E+00
 -1         2 1.66667E-02 0.00000E+00 0.00000E+00
 -1         3 3.33333E-02 0.00000E+00 0.00000E+00
 -1         4 5.00000E-02 0.00000E+00 0.00000E+00
 -1         5 6.66667E-02 0.00000E+00 0.00000E+00
 -1         8 0.00000E+00 6.25000E-03 0.00000E+00
 -1         9 1.66667E-02 6.25000E-03 0.00000E+00
 -1        10 3.33333E-02 6.25000E-03 0.00000E+00
 -1        11 5.00000E-02 6.25000E-03 0.00000E+00
 -1        12 6.66667E-02 6.25000E-03 0.00000E+00
 -1        15 0.00000E+00 1.25000E-02 0.00000E+00
 -1        16 1.66667E-02 1.25000E-02 0.00000E+00
 -1        17 3.33333E-02 1.25000E-02 0.00000E+00
 -1        18 5.00000E-02 1.25000E-02 0.00000E+00
 -1        19 6.66667E-02 1.25000E-02 0.00000E+00
 -1        20 8.33333E-02 1.25000E-02 0.00000E+00
 -1        21 1.00000E-01 1.25000E-02 0.00000E+00
 -1        23 1.66667E-02 1.87500E-02 0.00000E+00
 -1        24 3.33333E-02 1.87500E-02 0.00000E+00
 -1        25 5.00000E-02 1.87500E-02 0.00000E+00
 -1        26 6.66667E-02 1.87500E-02 0.00000E+00
 -1        27 8.33333E-02 1.87500E-02 0.00000E+00
 -1        28 1.00000E-01 1.87500E-02 0.00000E+00
 -1        31 3.33333E-02 2.50000E-02 0.00000E+00
 -1        32 5.00000E-02 2.50000E-02 0.00000E+00
 -1        33 6.66667E-02 2.50000E-02 0.00000E+00
 -1        34 8.33333E-02 2.50000E-02 0.00000E+00
 -1        35 1.00000E-01 2.50000E-02 0.00000E+00
 -1        36 1.04167E-03 0.00000E+00 0.00000E+00
 -1        37 2.08333E-03 0.00000E+00 0.00000E+00
 -1        38 3.12500E-03 0.00000E+00 0.00000E+00
 -1        39 4.16667E-03 0.00000E+00 0.00000E+00
 -1        40 5.20833E-03 0.00000E+00 0.00000E+00
 -1        41 6.25000E-03 0.00000E+00 0.00000E+00
 -1        42 7.29167E-03 0.00000E+00 0.00000E+00
 -1        43 8.33333E-03 0.00000E+00 0.00000E+00
 -1        44 9.37500E-03 0.00000E+00 0.00000E+00
 -1        45 1.04167E-02 0.00000E+00 0.00000E+00
 -1        46 1.14583E-02 0.00000E+00 0.00000E+00
 -1        47 1.25000E-02 0.00000E+00 0.00000E+00
 -1        48 1.35417E-02 0.00000E+00 0.00000E+00
 -1        49 1.45833E-02 0.00000E+00 0.00000E+00
 -1        50 1.56250E-02 0.00000E+00 0.00000E+00
 -1        51 0.00000E+00 1.04167E-03 0.00000E+00
 -1        52 0.00000E+00 2.08333E-03 0.00000E+00
 -1        53 0.00000E+00 3.12500E-03 0.00000E+00
 -1        54 0.00000E+00 4.16667E-03 0.00000E+00
 -1        55 0.00000E+00 5.20833E-03 0.00000E+00
 -1        56 1.04167E-03 3.90630E-04 0.00000E+00
 -1        57 2.08333E-03 7.81250E-04 0.00000E+00
 -1        58 3.12500E-03 1.17188E-03 0.00000E+00
 -1        59 4.16667E-03 1.56250E-03 0.00000E+00
 -1        60 5.20833E-03 1.95312E-03 0.00000E+00
 -1        61 6.25000E-03 2.34375E-03 0.00000E+00
 -1        62 7.29167E-03 2.73438E-03 0.00000E+00
 -1        63 8.33333E-03 3.12500E-03 0.00000E+00
 -1        64 9.37500E-03 3.51563E-03 0.00000E+00
 -1        65 1.04167E-02 3.90625E-03 0.00000E+00
 -1        66 1.14583E-02 4.29688E-03 0.00000E+00
 -1        67 1.25000E-02 4.68750E-03 0.00000E+00
 -1        68 1.35417E-02 5.07813E-03 0.00000E+00
 -1        69 1.45833E-02 5.46875E-03 0.00000E+00
 -1        70 1.56250E-02 5.85938E-03 0.00000E+00
 -1        71 1.77083E-02 0.00000E+00 0.00000E+00
 -1        72 1.87500E-02 0.00000E+00 0.00000E+00
 -1        73 1.97917E-02 0.00000E+00 0.00000E+00
 -1        74 2.08333E-02 0.00000E+00 0.00000E+00
 -1        75 2.18750E-02 0.00000E+00 0.00000E+00
 -1        76 2.29167E-02 0.00000E+00 0.00000E+00
 -1        77 2.39583E-02 0.00000E+00 0.00000E+00
 -1        78 2.50000E-02 0.00000E+00 0.00000E+00
 -1        79 2.60417E-02 0.00000E+00 0.00000E+00
 -1        80 2.70833E-02 0.00000E+00 0.00000E+00
 -1        81 2.81250E-02 0.00000E+00 0.00000E+00
 -1        82 2.91667E-02 0.00000E+00 0.00000E+00
 -1        83 3.02083E-02 0.00000E+00 0.00000E+00
 -1        84 3.12500E-02 0.00000E+00 0.00000E+00
 -1        85 3.22917E-02 0.00000E+00 0.00000E+00
 -1        86 1.66667E-02 1.04167E-03 0.00000E+00
 -1        87 1.66667E-02 2.08333E-03 0.00000E+00
 -1        88 1.66667E-02 3.12500E-03 0.00000E+00
 -1        89 1.66667E-02 4.16667E-03 0.00000E+00
 -1        90 1.66667E-02 5.20833E-03 0.00000E+00
 -1        91 1.77083E-02 3.90630E-04 0.00000E+00
 -1        92 1.87500E-02 7.81250E-04 0.00000E+00
 -1        93 1.97917E-02 1.17188E-03 0.00000E+00
 -1        94 2.08333E-02 1.56250E-03 0.00000E+00
 -1        95 2.18750E-02 1.95312E-03 0.00000E+00
 -1        96 2.29167E-02 2.34375E-03 0.00000E+00
 -1        97 2.39583E-02 2.73438E-03 0.00000E+00
 -1        98 2.50000E-02 3.12500E-03 0.00000E+00
 -1        99 2.60417E-02 3.51563E-03 0.00000E+00
 -1       100 2.70833E-02 3.90625E-03 0.00000E+00
 -1       101 2.81250E-02 4.29688E-03 0.00000E+00
 -1       102 2.91667E-02 4.68750E-03 0.00000E+00
 -1       103 3.02083E-02 5.07813E-03 0.00000E+00
 -1       104 3.12500E-02 5.46875E-03 0.00000E+00
 -1       105 3.22917E-02 5.85938E-03 0.00000E+00
 -1       106 3.43750E-02 0.00000E+00 0.00000E+00
 -1       107 3.54167E-02 0.00000E+00 0.00000E+00
 -1       108 3.64583E-02 0.00000E+00 0.00000E+00
 -1       109 3.75000E-02 0.00000E+00 0.00000E+00
 -1       110 3.85417E-02 0.00000E+00 0.00000E+00
 -1       111 3.95833E-02 0.00000E+00 0.00000E+00
 -1       112 4.06250E-02 0.00000E+00 0.00000E+00
 -1       113 4.16667E-02 0.00000E+00 0.00000E+00
 -1       114 4.27083E-02 0.00000E+00 0.00000E+00
 -1       115 4.37500E-02 0.00000E+00 0.00000E+00
 -1       116 4.47917E-02 0.00000E+00 0.00000E+00
 -1       117 4.58333E-02 0.00000E+00 0.00000E+00
 -1       118 4.68750E-02 0.00000E+00 0.00000E+00
 -1       119 4.79167E-02 0.00000E+00 0.00000E+00
 -1       120 4.89583E-02 0.00000E+00 0.00000E+00
 -1       121 3.33333E-02 1.04167E-03 0.00000E+00
 -1       122 3.33333E-02 2.08333E-03 0.00000E+00
 -1       123 3.33333E-02 3.12500E-03 0.00000E+00
 -1       124 3.33333E-02 4.16667E-03 0.00000E+00
 -1       125 3.33333E-02 5.20833E-03 0.00000E+00
 -1       141 5.10417E-02 0.00000E+00 0.00000E+00
 -1       142 5.20833E-02 0.00000E+00 0.00000E+00
 -1       143 5.31250E-02 0.00000E+00 0.00000E+00
 -1       144 5.41667E-02 0.00000E+00 0.00000E+00
 -1       145 5.52083E-02 0.00000E+00 0.00000E+00
 -1       146 5.62500E-02 0.00000E+00 0.00000E+00
 -1       147 5.72917E-02 0.00000E+00 0.00000E+00
 -1       148 5.83333E-02 0.00000E+00 0.00000E+00
 -1       149 5.93750E-02 0.00000E+00 0.00000E+00
 -1       150 6.04167E-02 0.00000E+00 0.00000E+00
 -1       151 6.14583E-02 0.00000E+00 0.00000E+00
 -1       152 6.25000E-02 0.00000E+00 0.00000E+00
 -1       153 6.35417E-02 0.00000E+00 0.00000E+00
 -1       154 6.45833E-02 0.00000E+00 0.00000E+00
 -1       155 6.56250E-02 0.00000E+00 0.00000E+00
 -1       156 5.00000E-02 1.04167E-03 0.00000E+00
 -1       157 5.00000E-02 2.08333E-03 0.00000E+00
 -1       158 5.00000E-02 3.12500E-03 0.00000E+00
 -1       159 5.00000E-02 4.16667E-03 0.00000E+00
 -1       160 5.00000E-02 5.20833E-03 0.00000E+00
 -1       161 5.10417E-02 3.90630E-04 0.00000E+00
 -1       162 5.20833E-02 7.81250E-04 0.00000E+00
 -1       163 5.31250E-02 1.17188E-03 0.00000E+00
 -1       164 5.41667E-02 1.56250E-03 0.00000E+00
 -1       165 5.52083E-02 1.95312E-03 0.00000E+00
 -1       166 5.62500E-02 2.34375E-03 0.00000E+00
 -1       167 5.72917E-02 2.73438E-03 0.00000E+00
 -1       168 5.83333E-02 3.12500E-03 0.00000E+00
 -1       169 5.93750E-02 3.51563E-03 0.00000E+00
 -1       170 6.04167E-02 3.90625E-03 0.00000E+00
 -1       171 6.14583E-02 4.29688E-03 0.00000E+00
 -1       172 6.25000E-02 4.68750E-03 0.00000E+00
 -1       173 6.35417E-02 5.07813E-03 0.00000E+00
 -1       174 6.45833E-02 5.46875E-03 0.00000E+00
 -1       175 6.56250E-02 5.85938E-03 0.00000E+00
 -1       191 6.66667E-02 1.04167E-03 0.00000E+00
 -1       192 6.66667E-02 2.08333E-03 0.00000E+00
 -1       193 6.66667E-02 3.12500E-03 0.00000E+00
 -1       194 6.66667E-02 4.16667E-03 0.00000E+00
 -1       195 6.66667E-02 5.20833E-03 0.00000E+00
 -1       266 0.00000E+00 7.29167E-03 0.00000E+00
 -1       267 0.00000E+00 8.33333E-03 0.00000E+00
 -1       268 0.00000E+00 9.37500E-03 0.00000E+00
 -1       269 0.00000E+00 1.04167E-02 0.00000E+00
 -1       270 0.00000E+00 1.14583E-02 0.00000E+00
 -1       271 1.04167E-03 6.64063E-03 0.00000E+00
 -1       272 2.08333E-03 7.03125E-03 0.00000E+00
 -1       273 3.12500E-03 7.42188E-03 0.00000E+00
 -1       274 4.16667E-03 7.81250E-03 0.00000E+00
 -1       275 5.20833E-03 8.20313E-03 0.00000E+00
 -1       276 6.25000E-03 8.59375E-03 0.00000E+00
 -1       277 7.29167E-03 8.98438E-03 0.00000E+00
 -1       278 8.33333E-03 9.37500E-03 0.00000E+00
 -1       279 9.37500E-03 9.76562E-03 0.00000E+00
 -1       280 1.04167E-02 1.01562E-02 0.00000E+00
 -1       281 1.14583E-02 1.05469E-02 0.00000E+00
 -1       282 1.25000E-02 1.09375E-02 0.00000E+00
 -1       283 1.35417E-02 1.13281E-02 0.00000E+00
 -1       284 1.45833E-02 1.17188E-02 0.00000E+00
 -1       285 1.56250E-02 1.21094E-02 0.00000E+00
 -1       286 1.77083E-02 6.25000E-03 0.00000E+00
 -1       287 1.87500E-02 6.25000E-03 0.00000E+00
 -1       288 1.97917E-02 6.25000E-03 0.00000E+00
 -1       289 2.08333E-02 6.25000E-03 0.00000E+00
 -1       290 2.18750E-02 6.25000E-03 0.00000E+00
 -1       291 2.29167E-02 6.25000E-03 0.00000E+00
 -1       292 2.39583E-02 6.25000E-03 0.00000E+00
 -1       293 2.50000E-02 6.25000E-03 0.00000E+00
 -1       294 2.60417E-02 6.25000E-03 0.00000E+00
 -1       295 2.70833E-02 6.25000E-03 0.00000E+00
 -1       296 2.81250E-02 6.25000E-03 0.00000E+00
 -1       297 2.91667E-02 6.25000E-03 0.00000E+00
 -1       298 3.02083E-02 6.25000E-03 0.00000E+00
 -1       299 3.12500E-02 6.25000E-03 0.00000E+00
 -1       300 3.22917E-02 6.25000E-03 0.00000E+00
 -1       301 1.66667E-02 7.29167E-03 0.00000E+00
 -1       302 1.66667E-02 8.33333E-03 0.00000E+00
 -1       303 1.66667E-02 9.37500E-03 0.00000E+00
 -1       304 1.66667E-02 1.04167E-02 0.00000E+00
 -1       305 1.66667E-02 1.14583E-02 0.00000E+00
 -1       306 1.77083E-02 6.64063E-03 0.00000E+00
 -1       307 1.87500E-02 7.03125E-03 0.00000E+00
 -1       308 1.97917E-02 7.42188E-03 0.00000E+00
 -1       309 2.08333E-02 7.81250E-03 0.00000E+00
 -1       310 2.18750E-02 8.20313E-03 0.00000E+00
 -1       311 2.29167E-02 8.59375E-03 0.00000E+00
 -1       312 2.39583E-02 8.98438E-03 0.00000E+00
 -1       313 2.50000E-02 9.37500E-03 0.00000E+00
 -1       314 2.60417E-02 9.76562E-03 0.00000E+00
 -1       315 2.70833E-02 1.01562E-02 0.00000E+00
 -1       316 2.81250E-02 1.05469E-02 0.00000E+00
 -1       317 2.91667E-02 1.09375E-02 0.00000E+00
 -1       318 3.02083E-02 1.13281E-02 0.00000E+00
 -1       319 3.12500E-02 1.17188E-02 0.00000E+00
 -1       320 3.22917E-02 1.21094E-02 0.00000E+00
 -1       336 3.33333E-02 7.29167E-03 0.00000E+00
 -1       337 3.33333E-02 8.33333E-03 0.00000E+00
 -1       338 3.33333E-02 9.37500E-03 0.00000E+00
 -1       339 3.33333E-02 1.04167E-02 0.00000E+00
 -1       340 3.33333E-02 1.14583E-02 0.00000E+00
 -1       356 5.10417E-02 6.25000E-03 0.00000E+00
 -1       357 5.20833E-02 6.25000E-03 0.00000E+00
 -1       358 5.31250E-02 6.25000E-03 0.00000E+00
 -1       359 5.41667E-02 6.25000E-03 0.00000E+00
 -1       360 5.52083E-02 6.25000E-03 0.00000E+00
 -1       361 5.62500E-02 6.25000E-03 0.00000E+00
 -1       362 5.72917E-02 6.25000E-03 0.00000E+00
 -1       363 5.83333E-02 6.25000E-03 0.00000E+00
 -1       364 5.93750E-02 6.25000E-03 0.00000E+00
 -1       365 6.04167E-02 6.25000E-03 0.00000E+00
 -1       366 6.14583E-02 6.25000E-03 0.00000E+00
 -1       367 6.25000E-02 6.25000E-03 0.00000E+00
 -1       368 6.35417E-02 6.25000E-03 0.00000E+00
 -1       369 6.45833E-02 6.25000E-03 0.00000E+00
 -1       370 6.56250E-02 6.25000E-03 0.00000E+00
 -1       406 6.66667E-02 7.29167E-03 0.00000E+00
 -1       407 6.66667E-02 8.33333E-03 0.00000E+00
 -1       408 6.66667E-02 9.37500E-03 0.00000E+00
 -1       409 6.66667E-02 1.04167E-02 0.00000E+00
 -1       410 6.66667E-02 1.14583E-02 0.00000E+00
 -1       466 1.04167E-03 1.25000E-02 0.00000E+00
 -1       467 2.08333E-03 1.25000E-02 0.00000E+00
 -1       468 3.12500E-03 1.25000E-02 0.00000E+00
 -1       469 4.16667E-03 1.25000E-02 0.00000E+00
 -1       470 5.20833E-03 1.25000E-02 0.00000E+00
 -1       471 6.25000E-03 1.25000E-02 0.00000E+00
 -1       472 7.29167E-03 1.25000E-02 0.00000E+00
 -1       473 8.33333E-03 1.25000E-02 0.00000E+00
 -1       474 9.37500E-03 1.25000E-02 0.00000E+00
 -1       475 1.04167E-02 1.25000E-02 0.00000E+00
 -1       476 1.14583E-02 1.25000E-02 0.00000E+00
 -1       477 1.25000E-02 1.25000E-02 0.00000E+00
 -1       478 1.35417E-02 1.25000E-02 0.00000E+00
 -1       479 1.45833E-02 1.25000E-02 0.00000E+00
 -1       480 1.56250E-02 1.25000E-02 0.00000E+00
 -1       516 1.66667E-02 1.35417E-02 0.00000E+00
 -1       517 1.66667E-02 1.45833E-02 0.00000E+00
 -1       518 1.66667E-02 1.56250E-02 0.00000E+00
 -1       519 1.66667E-02 1.66667E-02 0.00000E+00
 -1       520 1.66667E-02 1.77083E-02 0.00000E+00
 -1       521 1.77083E-02 1.28906E-02 0.00000E+00
 -1       522 1.87500E-02 1.32813E-02 0.00000E+00
 -1       523 1.97917E-02 1.36719E-02 0.00000E+00
 -1       524 2.08333E-02 1.40625E-02 0.00000E+00
 -1       525 2.18750E-02 1.44531E-02 0.00000E+00
 -1       526 2.29167E-02 1.48437E-02 0.00000E+00
 -1       527 2.39583E-02 1.52344E-02 0.00000E+00
 -1       528 2.50000E-02 1.56250E-02 0.00000E+00
 -1       529 2.60417E-02 1.60156E-02 0.00000E+00
 -1       530 2.70833E-02 1.64062E-02 0.00000E+00
 -1       531 2.81250E-02 1.67969E-02 0.00000E+00
 -1       532 2.91667E-02 1.71875E-02 0.00000E+00
 -1       533 3.02083E-02 1.75781E-02 0.00000E+00
 -1       534 3.12500E-02 1.79687E-02 0.00000E+00
 -1       535 3.22917E-02 1.83594E-02 0.00000E+00
 -1       536 3.43750E-02 1.25000E-02 0.00000E+00
 -1       537 3.54167E-02 1.25000E-02 0.00000E+00
 -1       538 3.64583E-02 1.25000E-02 0.00000E+00
 -1       539 3.75000E-02 1.25000E-02 0.00000E+00
 -1       540 3.85417E-02 1.25000E-02 0.00000E+00
 -1       541 3.95833E-02 1.25000E-02 0.00000E+00
 -1       542 4.06250E-02 1.25000E-02 0.00000E+00
 -1       543 4.16667E-02 1.25000E-02 0.00000E+00
 -1       544 4.27083E-02 1.25000E-02 0.00000E+00
 -1       545 4.37500E-02 1.25000E-02 0.00000E+00
 -1       546 4.47917E-02 1.25000E-02 0.00000E+00
 -1       547 4.58333E-02 1.25000E-02 0.00000E+00
 -1       548 4.68750E-02 1.25000E-02 0.00000E+00
 -1       549 4.79167E-02 1.25000E-02 0.00000E+00
 -1       550 4.89583E-02 1.25000E-02 0.00000E+00
 -1       551 3.33333E-02 1.35417E-02 0.00000E+00
 -1       552 3.33333E-02 1.45833E-02 0.00000E+00
 -1       553 3.33333E-02 1.56250E-02 0.00000E+00
 -1       554 3.33333E-02 1.66667E-02 0.00000E+00
 -1       555 3.33333E-02 1.77083E-02 0.00000E+00
 -1       556 3.43750E-02 1.28906E-02 0.00000E+00
 -1       557 3.54167E-02 1.32813E-02 0.00000E+00
 -1       558 3.64583E-02 1.36719E-02 0.00000E+00
 -1       559 3.75000E-02 1.40625E-02 0.00000E+00
 -1       560 3.85417E-02 1.44531E-02 0.00000E+00
 -1       561 3.95833E-02 1.48437E-02 0.00000E+00
 -1       562 4.06250E-02 1.52344E-02 0.00000E+00
 -1       563 4.16667E-02 1.56250E-02 0.00000E+00
 -1       564 4.27083E-02 1.60156E-02 0.00000E+00
 -1       565 4.37500E-02 1.64062E-02 0.00000E+00
 -1       566 4.47917E-02 1.67969E-02 0.00000E+00
 -1       567 4.58333E-02 1.71875E-02 0.00000E+00
 -1       568 4.68750E-02 1.75781E-02 0.00000E+00
 -1       569 4.79167E-02 1.79687E-02 0.00000E+00
 -1       570 4.89583E-02 1.83594E-02 0.00000E+00
 -1       571 5.10417E-02 1.25000E-02 0.00000E+00
 -1       572 5.20833E-02 1.25000E-02 0.00000E+00
 -1       573 5.31250E-02 1.25000E-02 0.00000E+00
 -1       574 5.41667E-02 1.25000E-02 0.00000E+00
 -1       575 5.52083E-02 1.25000E-02 0.00000E+00
 -1       576 5.62500E-02 1.25000E-02 0.00000E+00
 -1       577 5.72917E-02 1.25000E-02 0.00000E+00
 -1       578 5.83333E-02 1.25000E-02 0.00000E+00
 -1       579 5.93750E-02 1.25000E-02 0.00000E+00
 -1       580 6.04167E-02 1.25000E-02 0.00000E+00
 -1       581 6.14583E-02 1.25000E-02 0.00000E+00
 -1       582 6.25000E-02 1.25000E-02 0.00000E+00
 -1       583 6.35417E-02 1.25000E-02 0.00000E+00
 -1       584 6.45833E-02 1.25000E-02 0.00000E+00
 -1       585 6.56250E-02 1.25000E-02 0.00000E+00
 -1       586 5.00000E-02 1.35417E-02 0.00000E+00
 -1       587 5.00000E-02 1.45833E-02 0.00000E+00
 -1       588 5.00000E-02 1.56250E-02 0.00000E+00
 -1       589 5.00000E-02 1.66667E-02 0.00000E+00
 -1       590 5.00000E-02 1.77083E-02 0.00000E+00
 -1       591 5.10417E-02 1.28906E-02 0.00000E+00
 -1       592 5.20833E-02 1.32813E-02 0.00000E+00
 -1       593 5.31250E-02 1.36719E-02 0.00000E+00
 -1       594 5.41667E-02 1.40625E-02 0.00000E+00
 -1       595 5.52083E-02 1.44531E-02 0.00000E+00
 -1       596 5.62500E-02 1.48437E-02 0.00000E+00
 -1       597 5.72917E-02 1.52344E-02 0.00000E+00
 -1       598 5.83333E-02 1.56250E-02 0.00000E+00
 -1       599 5.93750E-02 1.60156E-02 0.00000E+00
 -1       600 6.04167E-02 1.64062E-02 0.00000E+00
 -1       601 6.14583E-02 1.67969E-02 0.00000E+00
 -1       602 6.25000E-02 1.71875E-02 0.00000E+00
 -1       603 6.35417E-02 1.75781E-02 0.00000E+00
 -1       604 6.45833E-02 1.79687E-02 0.00000E+00
 -1       605 6.56250E-02 1.83594E-02 0.00000E+00
 -1       606 6.77083E-02 1.25000E-02 0.00000E+00
 -1       607 6.87500E-02 1.25000E-02 0.00000E+00
 -1       608 6.97917E-02 1.25000E-02 0.00000E+00
 -1       609 7.08333E-02 1.25000E-02 0.00000E+00
 -1       610 7.18750E-02 1.25000E-02 0.00000E+00
 -1       611 7.29167E-02 1.25000E-02 0.00000E+00
 -1       612 7.39583E-02 1.25000E-02 0.00000E+00
 -1       613 7.50000E-02 1.25000E-02 0.00000E+00
 -1       614 7.60417E-02 1.25000E-02 0.00000E+00
 -1       615 7.70833E-02 1.25000E-02 0.00000E+00
 -1       616 7.81250E-02 1.25000E-02 0.00000E+00
 -1       617 7.91667E-02 1.25000E-02 0.00000E+00
 -1       618 8.02083E-02 1.25000E-02 0.00000E+00
 -1       619 8.12500E-02 1.25000E-02 0.00000E+00
 -1       620 8.22917E-02 1.25000E-02 0.00000E+00
 -1       621 6.66667E-02 1.35417E-02 0.00000E+00
 -1       622 6.66667E-02 1.45833E-02 0.00000E+00
 -1       623 6.66667E-02 1.56250E-02 0.00000E+00
 -1       624 6.66667E-02 1.66667E-02 0.00000E+00
 -1       625 6.66667E-02 1.77083E-02 0.00000E+00
 -1       626 6.77083E-02 1.28906E-02 0.00000E+00
 -1       627 6.87500E-02 1.32813E-02 0.00000E+00
 -1       628 6.97917E-02 1.36719E-02 0.00000E+00
 -1       629 7.08333E-02 1.40625E-02 0.00000E+00
 -1       630 7.18750E-02 1.44531E-02 0.00000E+00
 -1       631 7.29167E-02 1.48437E-02 0.00000E+00
 -1       632 7.39583E-02 1.52344E-02 0.00000E+00
 -1       633 7.50000E-02 1.56250E-02 0.00000E+00
 -1       634 7.60417E-02 1.60156E-02 0.00000E+00
 -1       635 7.70833E-02 1.64062E-02 0.00000E+00
 -1       636 7.81250E-02 1.67969E-02 0.00000E+00
 -1       637 7.91667E-02 1.71875E-02 0.00000E+00
 -1       638 8.02083E-02 1.75781E-02 0.00000E+00
 -1       639 8.12500E-02 1.79687E-02 0.00000E+00
 -1       640 8.22917E-02 1.83594E-02 0.00000E+00
 -1       641 8.43750E-02 1.25000E-02 0.00000E+00
 -1       642 8.54167E-02 1.25000E-02 0.00000E+00
 -1       643 8.64583E-02 1.25000E-02 0.00000E+00
 -1       644 8.75000E-02 1.25000E-02 0.00000E+00
 -1       645 8.85417E-02 1.25000E-02 0.00000E+00
 -1       646 8.95833E-02 1.25000E-02 0.00000E+00
 -1       647 9.06250E-02 1.25000E-02 0.00000E+00
 -1       648 9.16667E-02 1.25000E-02 0.00000E+00
 -1       649 9.27083E-02 1.25000E-02 0.00000E+00
 -1       650 9.37500E-02 1.25000E-02 0.00000E+00
 -1       651 9.47917E-02 1.25000E-02 0.00000E+00
 -1       652 9.58333E-02 1.25000E-02 0.00000E+00
 -1       653 9.68750E-02 1.25000E-02 0.00000E+00
 -1       654 9.79167E-02 1.25000E-02 0.00000E+00
 -1       655 9.89583E-02 1.25000E-02 0.00000E+00
 -1       656 8.33333E-02 1.35417E-02 0.00000E+00
 -1       657 8.33333E-02 1.45833E-02 0.00000E+00
 -1       658 8.33333E-02 1.56250E-02 0.00000E+00
 -1       659 8.33333E-02 1.66667E-02 0.00000E+00
 -1       660 8.33333E-02 1.77083E-02 0.00000E+00
 -1       661 8.43750E-02 1.28906E-02 0.00000E+00
 -1       662 8.54167E-02 1.32813E-02 0.00000E+00
 -1       663 8.64583E-02 1.36719E-02 0.00000E+00
 -1       664 8.75000E-02 1.40625E-02 0.00000E+00
 -1       665 8.85417E-02 1.44531E-02 0.00000E+00
 -1       666 8.95833E-02 1.48437E-02 0.00000E+00
 -1       667 9.06250E-02 1.52344E-02 0.00000E+00
 -1       668 9.16667E-02 1.56250E-02 0.00000E+00
 -1       669 9.27083E-02 1.60156E-02 0.00000E+00
 -1       670 9.37500E-02 1.64062E-02 0.00000E+00
 -1       671 9.47917E-02 1.67969E-02 0.00000E+00
 -1       672 9.58333E-02 1.71875E-02 0.00000E+00
 -1       673 9.68750E-02 1.75781E-02 0.00000E+00
 -1       674 9.79167E-02 1.79687E-02 0.00000E+00
 -1       675 9.89583E-02 1.83594E-02 0.00000E+00
 -1       676 1.00000E-01 1.35417E-02 0.00000E+00
 -1       677 1.00000E-01 1.45833E-02 0.00000E+00
 -1       678 1.00000E-01 1.56250E-02 0.00000E+00
 -1       679 1.00000E-01 1.66667E-02 0.00000E+00
 -1       680 1.00000E-01 1.77083E-02 0.00000E+00
 -1       716 1.77083E-02 1.87500E-02 0.00000E+00
 -1       717 1.87500E-02 1.87500E-02 0.00000E+00
 -1       718 1.97917E-02 1.87500E-02 0.00000E+00
 -1       719 2.08333E-02 1.87500E-02 0.00000E+00
 -1       720 2.18750E-02 1.87500E-02 0.00000E+00
 -1       721 2.29167E-02 1.87500E-02 0.00000E+00
 -1       722 2.39583E-02 1.87500E-02 0.00000E+00
 -1       723 2.50000E-02 1.87500E-02 0.00000E+00
 -1       724 2.60417E-02 1.87500E-02 0.00000E+00
 -1       725 2.70833E-02 1.87500E-02 0.00000E+00
 -1       726 2.81250E-02 1.87500E-02 0.00000E+00
 -1       727 2.91667E-02 1.87500E-02 0.00000E+00
 -1       728 3.02083E-02 1.87500E-02 0.00000E+00
 -1       729 3.12500E-02 1.87500E-02 0.00000E+00
 -1       730 3.22917E-02 1.87500E-02 0.00000E+00
 -1       766 3.33333E-02 1.97917E-02 0.00000E+00
 -1       767 3.33333E-02 2.08333E-02 0.00000E+00
 -1       768 3.33333E-02 2.18750E-02 0.00000E+00
 -1       769 3.33333E-02 2.29167E-02 0.00000E+00
 -1       770 3.33333E-02 2.39583E-02 0.00000E+00
 -1       771 3.43750E-02 1.91406E-02 0.00000E+00
 -1       772 3.54167E-02 1.95312E-02 0.00000E+00
 -1       773 3.64583E-02 1.99219E-02 0.00000E+00
 -1       774 3.75000E-02 2.03125E-02 0.00000E+00
 -1       775 3.85417E-02 2.07031E-02 0.00000E+00
 -1       776 3.95833E-02 2.10938E-02 0.00000E+00
 -1       777 4.06250E-02 2.14844E-02 0.00000E+00
 -1       778 4.16667E-02 2.18750E-02 0.00000E+00
 -1       779 4.27083E-02 2.22656E-02 0.00000E+00
 -1       780 4.37500E-02 2.26563E-02 0.00000E+00
 -1       781 4.47917E-02 2.30469E-02 0.00000E+00
 -1       782 4.58333E-02 2.34375E-02 0.00000E+00
 -1       783 4.68750E-02 2.38281E-02 0.00000E+00
 -1       784 4.79167E-02 2.42187E-02 0.00000E+00
 -1       785 4.89583E-02 2.46094E-02 0.00000E+00
 -1       786 5.10417E-02 1.87500E-02 0.00000E+00
 -1       787 5.20833E-02 1.87500E-02 0.00000E+00
 -1       788 5.31250E-02 1.87500E-02 0.00000E+00
 -1       789 5.41667E-02 1.87500E-02 0.00000E+00
 -1       790 5.52083E-02 1.87500E-02 0.00000E+00
 -1       791 5.62500E-02 1.87500E-02 0.00000E+00
 -1       792 5.72917E-02 1.87500E-02 0.00000E+00
 -1       793 5.83333E-02 1.87500E-02 0.00000E+00
 -1       794 5.93750E-02 1.87500E-02 0.00000E+00
 -1       795 6.04167E-02 1.87500E-02 0.00000E+00
 -1       796 6.14583E-02 1.87500E-02 0.00000E+00
 -1       797 6.25000E-02 1.87500E-02 0.00000E+00
 -1       798 6.35417E-02 1.87500E-02 0.00000E+00
 -1       799 6.45833E-02 1.87500E-02 0.00000E+00
 -1       800 6.56250E-02 1.87500E-02 0.00000E+00
 -1       801 5.00000E-02 1.97917E-02 0.00000E+00
 -1       802 5.00000E-02 2.08333E-02 0.00000E+00
 -1       803 5.00000E-02 2.18750E-02 0.00000E+00
 -1       804 5.00000E-02 2.29167E-02 0.00000E+00
 -1       805 5.00000E-02 2.39583E-02 0.00000E+00
 -1       806 5.10417E-02 1.91406E-02 0.00000E+00
 -1       807 5.20833E-02 1.95312E-02 0.00000E+00
 -1       808 5.31250E-02 1.99219E-02 0.00000E+00
 -1       809 5.41667E-02 2.03125E-02 0.00000E+00
 -1       810 5.52083E-02 2.07031E-02 0.00000E+00
 -1       811 5.62500E-02 2.10938E-02 0.00000E+00
 -1       812 5.72917E-02 2.14844E-02 0.00000E+00
 -1       813 5.83333E-02 2.18750E-02 0.00000E+00
 -1       814 5.93750E-02 2.22656E-02 0.00000E+00
 -1       815 6.04167E-02 2.26563E-02 0.00000E+00
 -1       816 6.14583E-02 2.30469E-02 0.00000E+00
 -1       817 6.25000E-02 2.34375E-02 0.00000E+00
 -1       818 6.35417E-02 2.38281E-02 0.00000E+00
 -1       819 6.45833E-02 2.42187E-02 0.00000E+00
 -1       820 6.56250E-02 2.46094E-02 0.00000E+00
 -1       821 6.77083E-02 1.87500E-02 0.00000E+00
 -1       822 6.87500E-02 1.87500E-02 0.00000E+00
 -1       823 6.97917E-02 1.87500E-02 0.00000E+00
 -1       824 7.08333E-02 1.87500E-02 0.00000E+00
 -1       825 7.18750E-02 1.87500E-02 0.00000E+00
 -1       826 7.29167E-02 1.87500E-02 0.00000E+00
 -1       827 7.39583E-02 1.87500E-02 0.00000E+00
 -1       828 7.50000E-02 1.87500E-02 0.00000E+00
 -1       829 7.60417E-02 1.87500E-02 0.00000E+00
 -1       830 7.70833E-02 1.87500E-02 0.00000E+00
 -1       831 7.81250E-02 1.87500E-02 0.00000E+00
 -1       832 7.91667E-02 1.87500E-02 0.00000E+00
 -1       833 8.02083E-02 1.87500E-02 0.00000E+00
 -1       834 8.12500E-02 1.87500E-02 0.00000E+00
 -1       835 8.22917E-02 1.87500E-02 0.00000E+00
 -1       836 6.66667E-02 1.97917E-02 0.00000E+00
 -1       837 6.66667E-02 2.08333E-02 0.00000E+00
 -1       838 6.66667E-02 2.18750E-02 0.00000E+00
 -1       839 6.66667E-02 2.29167E-02 0.00000E+00
 -1       840 6.66667E-02 2.39583E-02 0.00000E+00
 -1       841 6.77083E-02 1.91406E-02 0.00000E+00
 -1       842 6.87500E-02 1.95312E-02 0.00000E+00
 -1       843 6.97917E-02 1.99219E-02 0.00000E+00
 -1       844 7.08333E-02 2.03125E-02 0.00000E+00
 -1       845 7.18750E-02 2.07031E-02 0.00000E+00
 -1       846 7.29167E-02 2.10938E-02 0.00000E+00
 -1       847 7.39583E-02 2.14844E-02 0.00000E+00
 -1       848 7.50000E-02 2.18750E-02 0.00000E+00
 -1       849 7.60417E-02 2.22656E-02 0.00000E+00
 -1       850 7.70833E-02 2.26563E-02 0.00000E+00
 -1       851 7.81250E-02 2.30469E-02 0.00000E+00
 -1       852 7.91667E-02 2.34375E-02 0.00000E+00
 -1       853 8.02083E-02 2.38281E-02 0.00000E+00
 -1       854 8.12500E-02 2.42187E-02 0.00000E+00
 -1       855 8.22917E-02 2.46094E-02 0.00000E+00
 -1       856 8.43750E-02 1.87500E-02 0.00000E+00
 -1       857 8.54167E-02 1.87500E-02 0.00000E+00
 -1       858 8.64583E-02 1.87500E-02 0.00000E+00
 -1       859 8.75000E-02 1.87500E-02 0.00000E+00
 -1       860 8.85417E-02 1.87500E-02 0.00000E+00
 -1       861 8.95833E-02 1.87500E-02 0.00000E+00
 -1       862 9.06250E-02 1.87500E-02 0.00000E+00
 -1       863 9.16667E-02 1.87500E-02 0.00000E+00
 -1       864 9.27083E-02 1.87500E-02 0.00000E+00
 -1       865 9.37500E-02 1.87500E-02 0.00000E+00
 -1       866 9.47917E-02 1.87500E-02 0.00000E+00
 -1       867 9.58333E-02 1.87500E-02 0.00000E+00
 -1       868 9.68750E-02 1.87500E-02 0.00000E+00
 -1       869 9.79167E-02 1.87500E-02 0.00000E+00
 -1       870 9.89583E-02 1.87500E-02 0.00000E+00
 -1       871 8.33333E-02 1.97917E-02 0.00000E+00
 -1       872 8.33333E-02 2.08333E-02 0.00000E+00
 -1       873 8.33333E-02 2.18750E-02 0.00000E+00
 -1       874 8.33333E-02 2.29167E-02 0.00000E+00
 -1       875 8.33333E-02 2.39583E-02 0.00000E+00
 -1       876 8.43750E-02 1.91406E-02 0.00000E+00
 -1       877 8.54167E-02 1.95312E-02 0.00000E+00
 -1       878 8.64583E-02 1.99219E-02 0.00000E+00
 -1       879 8.75000E-02 2.03125E-02 0.00000E+00
 -1       880 8.85417E-02 2.07031E-02 0.00000E+00
 -1       881 8.95833E-02 2.10938E-02 0.00000E+00
 -1       882 9.06250E-02 2.14844E-02 0.00000E+00
 -1       883 9.16667E-02 2.18750E-02 0.00000E+00
 -1       884 9.27083E-02 2.22656E-02 0.00000E+00
 -1       885 9.37500E-02 2.26563E-02 0.00000E+00
 -1       886 9.47917E-02 2.30469E-02 0.00000E+00
 -1       887 9.58333E-02 2.34375E-02 0.00000E+00
 -1       888 9.68750E-02 2.38281E-02 0.00000E+00
 -1       889 9.79167E-02 2.42187E-02 0.00000E+00
 -1       890 9.89583E-02 2.46094E-02 0.00000E+00
 -1       891 1.00000E-01 1.97917E-02 0.00000E+00
 -1       892 1.00000E-01 2.08333E-02 0.00000E+00
 -1       893 1.00000E-01 2.18750E-02 0.00000E+00
 -1       894 1.00000E-01 2.29167E-02 0.00000E+00
 -1       895 1.00000E-01 2.39583E-02 0.00000E+00
 -1       956 6.77083E-02 2.50000E-02 0.00000E+00
 -1       957 6.87500E-02 2.50000E-02 0.00000E+00
 -1       958 6.97917E-02 2.50000E-02 0.00000E+00
 -1       959 7.08333E-02 2.50000E-02 0.00000E+00
 -1       960 7.18750E-02 2.50000E-02 0.00000E+00
 -1       961 7.29167E-02 2.50000E-02 0.00000E+00
 -1       962 7.39583E-02 2.50000E-02 0.00000E+00
 -1       963 7.50000E-02 2.50000E-02 0.00000E+00
 -1       964 7.60417E-02 2.50000E-02 0.00000E+00
 -1       965 7.70833E-02 2.50000E-02 0.00000E+00
 -1       966 7.81250E-02 2.50000E-02 0.00000E+00
 -1       967 7.91667E-02 2.50000E-02 0.00000E+00
 -1       968 8.02083E-02 2.50000E-02 0.00000E+00
 -1       969 8.12500E-02 2.50000E-02 0.00000E+00
 -1       970 8.22917E-02 2.50000E-02 0.00000E+00
 -1       971 8.43750E-02 2.50000E-02 0.00000E+00
 -1       972 8.54167E-02 2.50000E-02 0.00000E+00
 -1       973 8.64583E-02 2.50000E-02 0.00000E+00
 -1       974 8.75000E-02 2.50000E-02 0.00000E+00
 -1       975 8.85417E-02 2.50000E-02 0.00000E+00