
 stresses (elem, integ.pnt.,sxx,syy,szz,sxy,sxz,syz) for set ELALL and time  0.1000000E+01

         1   1  1.759879E+07 -1.177434E+06 -1.524605E+06 -1.960851E+05 -1.067281E+06  3.281254E+02
         1   2  1.781863E+07  2.537120E+05 -6.502666E+05 -5.120391E+04 -7.094786E+05  5.694810E+01
         1   3  1.758717E+07  4.784559E+04 -4.127420E+05  9.372364E+04 -3.517210E+05 -5.169350E+01
         1   4  1.759875E+07 -1.177504E+06 -1.524615E+06 -1.426735E-06 -1.067280E+06  4.271598E-09
         1   5  1.781863E+07  2.537072E+05 -6.502672E+05  7.468963E-08 -7.094786E+05  4.659598E-09
         1   6  1.758716E+07  4.782954E+04 -4.127443E+05  3.270216E-07 -3.517210E+05  8.918934E-10
         1   7  1.759879E+07 -1.177434E+06 -1.524605E+06  1.960851E+05 -1.067281E+06 -3.281254E+02
         1   8  1.781863E+07  2.537120E+05 -6.502666E+05  5.120391E+04 -7.094786E+05 -5.694810E+01
         1   9  1.758717E+07  4.784559E+04 -4.127420E+05 -9.372364E+04 -3.517210E+05  5.169350E+01
         1  10  1.759759E+07 -1.177730E+06 -1.526687E+06 -1.960849E+05  2.563199E-08  1.007934E-08
         1  11  1.781810E+07  2.535813E+05 -6.511865E+05 -5.120389E+04  1.249793E-07  2.490932E-08
         1  12  1.758704E+07  4.781347E+04 -4.129682E+05  9.372363E+04  5.653821E-08 -1.660302E-08
         1  13  1.759755E+07 -1.177800E+06 -1.526697E+06 -1.426194E-06  1.364992E-09  1.319755E-08
         1  14  1.781810E+07  2.535765E+05 -6.511872E+05 -1.036716E-06 -2.080179E-07  2.514969E-08
         1  15  1.758703E+07  4.779742E+04 -4.129704E+05 -2.293699E-07 -1.670348E-08 -1.763495E-08
         1  16  1.759759E+07 -1.177730E+06 -1.526687E+06  1.960849E+05 -1.302821E-07  1.094875E-08
         1  17  1.781810E+07  2.535813E+05 -6.511865E+05  5.120389E+04 -7.303798E-08  1.896679E-08
         1  18  1.758704E+07  4.781347E+04 -4.129682E+05 -9.372363E+04 -1.705495E-08 -2.185772E-08
         1  19  1.759879E+07 -1.177434E+06 -1.524605E+06 -1.960851E+05  1.067281E+06 -3.281254E+02
         1  20  1.781863E+07  2.537120E+05 -6.502666E+05 -5.120391E+04  7.094786E+05 -5.694810E+01
         1  21  1.758717E+07  4.784559E+04 -4.127420E+05  9.372364E+04  3.517210E+05  5.169350E+01
         1  22  1.759875E+07 -1.177504E+06 -1.524615E+06 -2.535900E-06  1.067280E+06  2.188663E-08
         1  23  1.781863E+07  2.537072E+05 -6.502672E+05 -1.036912E-06  7.094786E+05  4.475794E-08
         1  24  1.758716E+07  4.782954E+04 -4.127443E+05  3.944904E-07  3.517210E+05 -3.525439E-08
         1  25  1.759879E+07 -1.177434E+06 -1.524605E+06  1.960851E+05  1.067281E+06  3.281254E+02
         1  26  1.781863E+07  2.537120E+05 -6.502666E+05  5.120391E+04  7.094786E+05  5.694810E+01
         1  27  1.758717E+07  4.784559E+04 -4.127420E+05 -9.372364E+04  3.517210E+05 -5.169350E+01
         2   1  1.767686E+07 -1.682685E+05 -3.328754E+05 -2.465521E+04 -2.841020E+05  1.098270E+01
         2   2  1.770566E+07  3.188578E+04 -1.347802E+05 -6.888434E+03 -2.128192E+05  2.298528E+00
         2   3  1.767447E+07  2.663969E+04 -3.344153E+04  1.087820E+04 -1.415327E+05 -2.414099E+00
         2   4  1.767686E+07 -1.682696E+05 -3.328755E+05  1.476418E-06 -2.841020E+05 -2.351899E-09
         2   5  1.770566E+07  3.188569E+04 -1.347802E+05  2.122711E-06 -2.128192E+05 -5.323691E-09
         2   6  1.767447E+07  2.663948E+04 -3.344156E+04 -3.617486E-06 -1.415327E+05  1.797161E-09
         2   7  1.767686E+07 -1.682685E+05 -3.328754E+05  2.465521E+04 -2.841020E+05 -1.098270E+01
         2   8  1.770566E+07  3.188578E+04 -1.347802E+05  6.888434E+03 -2.128192E+05 -2.298528E+00
         2   9  1.767447E+07  2.663969E+04 -3.344153E+04 -1.087820E+04 -1.415327E+05  2.414099E+00
         2  10  1.767678E+07 -1.682895E+05 -3.330229E+05 -2.465521E+04  2.089203E-08 -2.788311E-08
         2  11  1.770561E+07  3.187402E+04 -1.348630E+05 -6.888434E+03 -4.180078E-09  7.905357E-09
         2  12  1.767445E+07  2.663449E+04 -3.347814E+04  1.087820E+04 -7.261944E-08  1.143059E-08
         2  13  1.767678E+07 -1.682906E+05 -3.330230E+05  9.219384E-07  1.392175E-07 -2.282267E-08
         2  14  1.770561E+07  3.187394E+04 -1.348630E+05  1.791774E-07 -7.040150E-08  1.190616E-08
         2  15  1.767445E+07  2.663428E+04 -3.347817E+04  8.247304E-07 -1.728775E-07  5.382579E-09
         2  16  1.767678E+07 -1.682895E+05 -3.330229E+05  2.465521E+04 -9.165556E-08 -1.962725E-08
         2  17  1.770561E+07  3.187402E+04 -1.348630E+05  6.888434E+03 -8.378491E-08  1.460255E-08
         2  18  1.767445E+07  2.663449E+04 -3.347814E+04 -1.087820E+04  1.162628E-07 -3.941234E-09
         2  19  1.767686E+07 -1.682685E+05 -3.328754E+05 -2.465521E+04  2.841020E+05 -1.098270E+01
         2  20  1.770566E+07  3.188578E+04 -1.347802E+05 -6.888434E+03  2.128192E+05 -2.298528E+00
         2  21  1.767447E+07  2.663969E+04 -3.344153E+04  1.087820E+04  1.415327E+05  2.414099E+00
         2  22  1.767686E+07 -1.682696E+05 -3.328755E+05  3.674702E-07  2.841020E+05 -4.501889E-08
         2  23  1.770566E+07  3.188569E+04 -1.347802E+05 -9.825455E-08  2.128192E+05  2.362314E-08
         2  24  1.767447E+07  2.663948E+04 -3.344156E+04 -7.721234E-07  1.415327E+05  1.201077E-08
         2  25  1.767686E+07 -1.682685E+05 -3.328754E+05  2.465521E+04  2.841020E+05  1.098270E+01
         2  26  1.770566E+07  3.188578E+04 -1.347802E+05  6.888434E+03  2.128192E+05  2.298528E+00
         2  27  1.767447E+07  2.663969E+04 -3.344153E+04 -1.087820E+04  1.415327E+05 -2.414099E+00
         3   1  1.769930E+07 -2.906080E+04  6.945029E+03  8.496273E+03 -1.391168E+05 -1.853245E+00
         3   2  1.767385E+07 -2.609720E+04  1.048406E+05 -6.096022E+03 -1.946645E+05  1.860705E+00
         3   3  1.769717E+07  1.450634E+05  2.802201E+05 -2.068796E+04 -2.502140E+05  8.116479E+00
         3   4  1.769930E+07 -2.906093E+04  6.945010E+03 -8.530286E-07 -1.391168E+05  9.916085E-10
         3   5  1.767385E+07 -2.609727E+04  1.048406E+05  7.492950E-07 -1.946645E+05 -4.657671E-09
         3   6  1.769717E+07  1.450627E+05  2.802200E+05  1.998959E-07 -2.502140E+05 -1.017087E-09
         3   7  1.769930E+07 -2.906080E+04  6.945029E+03 -8.496273E+03 -1.391168E+05  1.853245E+00
         3   8  1.767385E+07 -2.609720E+04  1.048406E+05  6.096022E+03 -1.946645E+05 -1.860705E+00
         3   9  1.769717E+07  1.450634E+05  2.802201E+05  2.068796E+04 -2.502140E+05 -8.116479E+00
         3  10  1.769928E+07 -2.906582E+04  6.909663E+03  8.496273E+03 -2.487721E-09  1.034941E-08
         3  11  1.767381E+07 -2.610703E+04  1.047713E+05 -6.096021E+03  5.593150E-08 -3.607323E-09
         3  12  1.769711E+07  1.450472E+05  2.801057E+05 -2.068796E+04  1.139131E-07 -4.084167E-08
         3  13  1.769928E+07 -2.906595E+04  6.909644E+03  1.368360E-06 -6.703014E-10  2.368908E-09
         3  14  1.767381E+07 -2.610710E+04  1.047713E+05  1.026700E-06  6.914583E-08  6.581431E-10
         3  15  1.769711E+07  1.450464E+05  2.801056E+05  1.298127E-07  1.472541E-07 -2.708575E-08
         3  16  1.769928E+07 -2.906582E+04  6.909663E+03 -8.496273E+03  1.062925E-07 -5.833912E-09
         3  17  1.767381E+07 -2.610703E+04  1.047713E+05  6.096021E+03  4.876172E-08  2.503712E-09
         3  18  1.769711E+07  1.450472E+05  2.801057E+05  2.068796E+04 -1.060476E-07 -1.694600E-08
         3  19  1.769930E+07 -2.906080E+04  6.945029E+03  8.496273E+03  1.391168E+05  1.853245E+00
         3  20  1.767385E+07 -2.609720E+04  1.048406E+05 -6.096022E+03  1.946645E+05 -1.860705E+00
         3  21  1.769717E+07  1.450634E+05  2.802201E+05 -2.068796E+04  2.502140E+05 -8.116479E+00
         3  22  1.769930E+07 -2.906093E+04  6.945010E+03  1.368523E-06  1.391168E+05  3.293419E-09
         3  23  1.767385E+07 -2.609727E+04  1.048406E+05  7.487872E-07  1.946645E+05  3.619781E-09
         3  24  1.769717E+07  1.450627E+05  2.802200E+05 -2.578026E-06  2.502140E+05 -5.397276E-08
         3  25  1.769930E+07 -2.906080E+04  6.945029E+03 -8.496273E+03  1.391168E+05 -1.853245E+00
         3  26  1.767385E+07 -2.609720E+04  1.048406E+05  6.096022E+03  1.946645E+05  1.860705E+00
         3  27  1.769717E+07  1.450634E+05  2.802201E+05  2.068796E+04  2.502140E+05  8.116479E+00
         4   1  1.777501E+07 -4.196630E+04  3.507948E+05  8.056955E+04 -3.075396E+05 -3.884692E+01
         4   2  1.757618E+07 -2.180995E+05  5.592950E+05 -4.401503E+04 -6.141384E+05  4.239185E+01
         4   3  1.776567E+07  1.013625E+06  1.315564E+06 -1.686341E+05 -9.207053E+05  2.434514E+02
         4   4  1.777500E+07 -4.197816E+04  3.507932E+05 -3.898220E-08 -3.075396E+05  1.037662E-08
         4   5  1.757618E+07 -2.181030E+05  5.592945E+05  1.495292E-06 -6.141384E+05  2.443186E-08
         4   6  1.776564E+07  1.013573E+06  1.315556E+06  7.397545E-07 -9.207053E+05  1.053958E-08
         4   7  1.777501E+07 -4.196630E+04  3.507948E+05 -8.056955E+04 -3.075396E+05  3.884692E+01
         4   8  1.757618E+07 -2.180995E+05  5.592950E+05  4.401503E+04 -6.141384E+05 -4.239185E+01
         4   9  1.776567E+07  1.013625E+06  1.315564E+06  1.686341E+05 -9.207053E+05 -2.434514E+02
         4  10  1.777491E+07 -4.199082E+04  3.506221E+05  8.056954E+04  1.237512E-07 -3.156483E-08
         4  11  1.757579E+07 -2.181973E+05  5.586058E+05 -4.401502E+04  1.477498E-08  1.850891E-08
         4  12  1.776478E+07  1.013406E+06  1.314015E+06 -1.686339E+05 -1.805892E-08  1.208350E-08
         4  13  1.777490E+07 -4.200269E+04  3.506204E+05 -1.148364E-06  1.393865E-07 -2.058925E-08
         4  14  1.757579E+07 -2.182008E+05  5.586053E+05  3.854549E-07  3.393529E-08  1.715383E-08
         4  15  1.776475E+07  1.013354E+06  1.314007E+06  1.919545E-06 -3.588986E-08  1.064968E-08
         4  16  1.777491E+07 -4.199082E+04  3.506221E+05 -8.056954E+04 -1.915201E-08 -1.336103E-08
         4  17  1.757579E+07 -2.181973E+05  5.586058E+05  4.401502E+04  3.928053E-08  1.578965E-08
         4  18  1.776478E+07  1.013406E+06  1.314015E+06  1.686339E+05 -7.251664E-08  5.812240E-09
         4  19  1.777501E+07 -4.196630E+04  3.507948E+05  8.056955E+04  3.075396E+05  3.884692E+01
         4  20  1.757618E+07 -2.180995E+05  5.592950E+05 -4.401503E+04  6.141384E+05 -4.239185E+01
         4  21  1.776567E+07  1.013625E+06  1.315564E+06 -1.686341E+05  9.207053E+05 -2.434514E+02
         4  22  1.777500E+07 -4.197816E+04  3.507932E+05 -2.812904E-06  3.075396E+05 -5.295057E-08
         4  23  1.757618E+07 -2.181030E+05  5.592945E+05  1.081919E-07  6.141384E+05  8.782158E-09
         4  24  1.776564E+07  1.013573E+06  1.315556E+06  1.136413E-07  9.207053E+05  8.622050E-09
         4  25  1.777501E+07 -4.196630E+04  3.507948E+05 -8.056955E+04  3.075396E+05 -3.884692E+01
         4  26  1.757618E+07 -2.180995E+05  5.592950E+05  4.401503E+04  6.141384E+05  4.239185E+01
         4  27  1.776567E+07  1.013625E+06  1.315564E+06  1.686341E+05  9.207053E+05  2.434514E+02
         5   1 -1.502400E+07 -3.121701E+07 -1.451392E+07  1.017914E+07 -3.274778E+05  5.963097E+05
         5   2 -1.430602E+07 -2.268665E+07 -1.295568E+07 -2.386806E+06 -8.660805E+05  7.084895E+05
         5   3 -6.673091E+06 -4.380867E+06 -8.104709E+06  6.963363E+06 -4.128855E+05  7.239912E+05
         5   4  1.413335E+06  3.405105E+07  1.782872E+06  1.231910E+07 -3.128620E+05  8.930069E+05
         5   5 -1.064946E+06  2.874697E+07 -1.632235E+05  1.170619E+06 -8.569113E+05  7.557733E+05
         5   6  3.717802E+06  3.363546E+07  1.363752E+06  1.190183E+07 -4.439004E+05  5.244792E+05
         5   7  1.754362E+07  1.031887E+08  1.776834E+07  1.461149E+07 -2.973525E+05  1.217942E+06
         5   8  1.200312E+07  8.258536E+07  1.243528E+07  4.969127E+06 -8.478307E+05  8.052690E+05
         5   9  1.404281E+07  7.294676E+07  1.072613E+07  1.707971E+07 -4.772699E+05  3.119097E+05
         5  10 -1.502422E+07 -3.121745E+07 -1.451484E+07  1.017930E+07  1.647017E-08 -1.493035E-08
         5  11 -1.430697E+07 -2.268741E+07 -1.295807E+07 -2.386299E+06  4.002248E-08 -7.139440E-09
         5  12 -6.673425E+06 -4.381488E+06 -8.106041E+06  6.963609E+06  1.059189E-07  4.880230E-09
         5  13  1.413019E+06  3.405019E+07  1.781238E+06  1.231933E+07  5.232603E-08  2.434754E-09
         5  14 -1.065893E+06  2.874617E+07 -1.656557E+05  1.171137E+06 -1.056160E-07  3.370136E-09
         5  15  3.717511E+06  3.363512E+07  1.362866E+06  1.190202E+07 -4.281901E-09  1.785189E-09
         5  16  1.754318E+07  1.031872E+08  1.776574E+07  1.461178E+07 -1.176542E-07  1.573869E-08
         5  17  1.200218E+07  8.258451E+07  1.243281E+07  4.969656E+06 -2.395609E-07  1.550069E-08
         5  18  1.404254E+07  7.294660E+07  1.072551E+07  1.707983E+07 -1.888058E-07 -5.532770E-11
         5  19 -1.502400E+07 -3.121701E+07 -1.451392E+07  1.017914E+07  3.274778E+05 -5.963097E+05
         5  20 -1.430602E+07 -2.268665E+07 -1.295568E+07 -2.386806E+06  8.660805E+05 -7.084895E+05
         5  21 -6.673091E+06 -4.380867E+06 -8.104709E+06  6.963363E+06  4.128855E+05 -7.239912E+05
         5  22  1.413335E+06  3.405105E+07  1.782872E+06  1.231910E+07  3.128620E+05 -8.930069E+05
         5  23 -1.064946E+06  2.874697E+07 -1.632235E+05  1.170619E+06  8.569113E+05 -7.557733E+05
         5  24  3.717802E+06  3.363546E+07  1.363752E+06  1.190183E+07  4.439004E+05 -5.244792E+05
         5  25  1.754362E+07  1.031887E+08  1.776834E+07  1.461149E+07  2.973525E+05 -1.217942E+06
         5  26  1.200312E+07  8.258536E+07  1.243528E+07  4.969127E+06  8.478307E+05 -8.052690E+05
         5  27  1.404281E+07  7.294676E+07  1.072613E+07  1.707971E+07  4.772699E+05 -3.119097E+05
         6   1 -2.010950E+06  1.956469E+07 -2.576782E+06  7.283530E+06 -1.649325E+05  2.292406E+05
         6   2 -1.020725E+06  2.483456E+07 -1.388343E+06  4.489743E+06 -1.249575E+05 -1.452728E+04
         6   3  1.294200E+06  2.785654E+07 -2.533045E+05  7.915469E+06 -7.875837E+04 -2.639729E+05
         6   4  1.156231E+06  3.145079E+07  3.336369E+05  8.726798E+06 -1.677984E+05  2.121811E+05
         6   5  1.073729E+06  3.258009E+07  5.120560E+05  5.512311E+06 -1.289278E+05 -3.643328E+04
         6   6  2.323998E+06  3.145535E+07  6.432870E+05  8.510604E+06 -8.375520E+04 -2.891738E+05
         6   7  4.316430E+06  4.346113E+07  3.233928E+06  1.019085E+07 -1.707201E+05  1.947734E+05
         6   8  3.165541E+06  4.037821E+07  2.408131E+06  6.544735E+06 -1.329443E+05 -5.860519E+04
         6   9  3.353457E+06  3.506551E+07  1.538921E+06  9.108507E+06 -8.878441E+04 -3.145148E+05
         6  10 -2.010994E+06  1.956463E+07 -2.576931E+06  7.283560E+06 -2.115358E-08  6.086263E-09
         6  11 -1.020742E+06  2.483455E+07 -1.388374E+06  4.489742E+06 -1.049267E-08  5.449690E-09
         6  12  1.294175E+06  2.785647E+07 -2.534405E+05  7.915452E+06 -6.581833E-08 -3.788974E-09
         6  13  1.156188E+06  3.145073E+07  3.335004E+05  8.726826E+06 -4.604658E-09 -9.649099E-10
         6  14  1.073711E+06  3.258008E+07  5.120222E+05  5.512307E+06  1.377215E-07 -4.524419E-09
         6  15  2.323969E+06  3.145526E+07  6.431255E+05  8.510585E+06  3.116918E-08 -5.330209E-09
         6  16  4.316389E+06  4.346108E+07  3.233803E+06  1.019088E+07  1.391156E-08 -1.025798E-08
         6  17  3.165521E+06  4.037820E+07  2.408092E+06  6.544729E+06  8.447344E-08 -1.367444E-08
         6  18  3.353425E+06  3.506540E+07  1.538732E+06  9.108486E+06  2.455465E-08 -5.529950E-09
         6  19 -2.010950E+06  1.956469E+07 -2.576782E+06  7.283530E+06  1.649325E+05 -2.292406E+05
         6  20 -1.020725E+06  2.483456E+07 -1.388343E+06  4.489743E+06  1.249575E+05  1.452728E+04
         6  21  1.294200E+06  2.785654E+07 -2.533045E+05  7.915469E+06  7.875837E+04  2.639729E+05
         6  22  1.156231E+06  3.145079E+07  3.336369E+05  8.726798E+06  1.677984E+05 -2.121811E+05
         6  23  1.073729E+06  3.258009E+07  5.120560E+05  5.512311E+06  1.289278E+05  3.643328E+04
         6  24  2.323998E+06  3.145535E+07  6.432870E+05  8.510604E+06  8.375520E+04  2.891738E+05
         6  25  4.316430E+06  4.346113E+07  3.233928E+06  1.019085E+07  1.707201E+05 -1.947734E+05
         6  26  3.165541E+06  4.037821E+07  2.408131E+06  6.544735E+06  1.329443E+05  5.860519E+04
         6  27  3.353457E+06  3.506551E+07  1.538921E+06  9.108507E+06  8.878441E+04  3.145148E+05
         7   1  5.232064E+06  4.285881E+07  3.507819E+06  1.068660E+07  5.184326E+04 -3.772071E+05
         7   2  4.807085E+06  4.896869E+07  5.007376E+06  7.162280E+06  1.276425E+05 -1.041450E+06
         7   3  9.649407E+06  5.427085E+07  7.747212E+06  1.181461E+07 -1.345403E+05 -1.651533E+06
         7   4  2.199696E+06  3.169808E+07  7.852234E+05  9.113089E+06  3.524531E+04 -4.623999E+05
         7   5  3.054583E+05  3.215632E+07  9.436493E+05  4.912479E+06  1.304737E+05 -1.028391E+06
         7   6  3.688185E+06  3.176304E+07  2.297504E+06  8.895067E+06 -1.154403E+05 -1.534010E+06
         7   7 -8.377449E+05  2.064490E+07 -1.946257E+06  7.560840E+06  1.892619E+04 -5.460580E+05
         7   8 -4.207876E+06  1.558654E+07 -3.140020E+06  2.709649E+06  1.333018E+05 -1.015406E+06
         7   9 -2.294902E+06  9.686854E+06 -3.187902E+06  6.056163E+06 -9.691558E+04 -1.419783E+06
         7  10  5.232025E+06  4.285866E+07  3.507561E+06  1.068662E+07  2.003166E-08 -1.110795E-08
         7  11  4.806799E+06  4.896759E+07  5.005447E+06  7.162388E+06  4.467298E-08 -3.974088E-10
         7  12  9.648729E+06  5.426810E+07  7.742471E+06  1.181445E+07  2.692101E-08  1.151984E-08
         7  13  2.199640E+06  3.169786E+07  7.848372E+05  9.113103E+06 -7.715475E-08  6.776562E-10
         7  14  3.051712E+05  3.215522E+07  9.417221E+05  4.912588E+06  3.972828E-08  5.921503E-09
         7  15  3.687578E+06  3.176060E+07  2.293277E+06  8.894935E+06  4.679438E-08  2.626710E-09
         7  16 -8.378226E+05  2.064459E+07 -1.946801E+06  7.560849E+06  6.668255E-08  1.349769E-08
         7  17 -4.208164E+06  1.558545E+07 -3.141946E+06  2.709759E+06 -6.188617E-08  1.250808E-08
         7  18 -2.295442E+06  9.684707E+06 -3.191644E+06  6.056057E+06  3.182154E-08 -6.468297E-09
         7  19  5.232064E+06  4.285881E+07  3.507819E+06  1.068660E+07 -5.184326E+04  3.772071E+05
         7  20  4.807085E+06  4.896869E+07  5.007376E+06  7.162280E+06 -1.276425E+05  1.041450E+06
         7  21  9.649407E+06  5.427085E+07  7.747212E+06  1.181461E+07  1.345403E+05  1.651533E+06
         7  22  2.199696E+06  3.169808E+07  7.852234E+05  9.113089E+06 -3.524531E+04  4.623999E+05
         7  23  3.054583E+05  3.215632E+07  9.436493E+05  4.912479E+06 -1.304737E+05  1.028391E+06
         7  24  3.688185E+06  3.176304E+07  2.297504E+06  8.895067E+06  1.154403E+05  1.534010E+06
         7  25 -8.377449E+05  2.064490E+07 -1.946257E+06  7.560840E+06 -1.892619E+04  5.460580E+05
         7  26 -4.207876E+06  1.558654E+07 -3.140020E+06  2.709649E+06 -1.333018E+05  1.015406E+06
         7  27 -2.294902E+06  9.686854E+06 -3.187902E+06  6.056163E+06  9.691558E+04  1.419783E+06
         8   1  1.556104E+07  6.713281E+05  8.740509E+05  1.119471E+05  5.960344E+05  1.049660E+02
         8   2  1.543373E+07 -1.455678E+05  3.824299E+05  2.908925E+04  3.869092E+05  1.770733E+01
         8   3  1.556638E+07 -2.307407E+04  2.594824E+05 -5.375351E+04  1.777677E+05 -1.503088E+01
         8   4  1.556102E+07  6.713051E+05  8.740476E+05 -7.659921E-07  5.960344E+05  1.916886E-08
         8   5  1.543373E+07 -1.455694E+05  3.824297E+05 -7.732462E-07  3.869092E+05  3.952152E-08
         8   6  1.556638E+07 -2.307937E+04  2.594817E+05 -9.888419E-07  1.777677E+05 -1.845704E-08
         8   7  1.556104E+07  6.713281E+05  8.740509E+05 -1.119471E+05  5.960344E+05 -1.049660E+02
         8   8  1.543373E+07 -1.455678E+05  3.824299E+05 -2.908925E+04  3.869092E+05 -1.770733E+01
         8   9  1.556638E+07 -2.307407E+04  2.594824E+05  5.375351E+04  1.777677E+05  1.503088E+01
         8  10  1.556066E+07  6.712355E+05  8.733995E+05  1.119470E+05  3.185668E-08  1.027520E-08
         8  11  1.543357E+07 -1.456068E+05  3.821555E+05  2.908924E+04 -7.914158E-10  2.155754E-08
         8  12  1.556635E+07 -2.308230E+04  2.594245E+05 -5.375351E+04 -1.126304E-07 -1.792803E-09
         8  13  1.556065E+07  6.712125E+05  8.733962E+05 -7.771643E-07 -1.522218E-09  2.616032E-09
         8  14  1.543357E+07 -1.456084E+05  3.821553E+05 -7.842315E-07 -6.993315E-08  9.085543E-09
         8  15  1.556635E+07 -2.308760E+04  2.594238E+05  1.791921E-07 -1.749965E-07  6.446063E-09
         8  16  1.556066E+07  6.712355E+05  8.733995E+05 -1.119470E+05  7.175003E-08 -2.352353E-09
         8  17  1.543357E+07 -1.456068E+05  3.821555E+05 -2.908924E+04 -8.610207E-08  1.238172E-09
         8  18  1.556635E+07 -2.308230E+04  2.594245E+05  5.375351E+04  8.241808E-08  1.571566E-08
         8  19  1.556104E+07  6.713281E+05  8.740509E+05  1.119471E+05 -5.960344E+05 -1.049660E+02
         8  20  1.543373E+07 -1.455678E+05  3.824299E+05  2.908925E+04 -3.869092E+05 -1.770733E+01
         8  21  1.556638E+07 -2.307407E+04  2.594824E+05 -5.375351E+04 -1.777677E+05  1.503088E+01
         8  22  1.556102E+07  6.713051E+05  8.740476E+05 -1.333522E-06 -5.960344E+05 -1.272552E-08
         8  23  1.543373E+07 -1.455694E+05  3.824297E+05 -1.894842E-06 -3.869092E+05 -2.351845E-08
         8  24  1.556638E+07 -2.307937E+04  2.594817E+05 -3.003519E-08 -1.777677E+05  3.050497E-08
         8  25  1.556104E+07  6.713281E+05  8.740509E+05 -1.119471E+05 -5.960344E+05  1.049660E+02
         8  26  1.543373E+07 -1.455678E+05  3.824299E+05 -2.908925E+04 -3.869092E+05  1.770733E+01
         8  27  1.556638E+07 -2.307407E+04  2.594824E+05  5.375351E+04 -1.777677E+05 -1.503088E+01
         9   1  1.551799E+07  9.490453E+04  2.216079E+05  1.659988E+04  1.341046E+05  3.501927E+00
         9   2  1.549426E+07 -2.468967E+04  1.315641E+05  3.106275E+03  6.549088E+04  3.200287E-01
         9   3  1.551872E+07  1.458660E+04  1.251077E+05 -1.038701E+04 -3.120898E+03  5.099448E-02
         9   4  1.551799E+07  9.490403E+04  2.216078E+05 -1.479757E-06  1.341046E+05 -3.405519E-08
         9   5  1.549426E+07 -2.468969E+04  1.315641E+05 -2.615951E-07  6.549088E+04 -2.641384E-10
         9   6  1.551872E+07  1.458640E+04  1.251077E+05  2.629679E-07 -3.120898E+03  1.061879E-08
         9   7  1.551799E+07  9.490453E+04  2.216079E+05 -1.659988E+04  1.341046E+05 -3.501927E+00
         9   8  1.549426E+07 -2.468967E+04  1.315641E+05 -3.106275E+03  6.549088E+04 -3.200287E-01
         9   9  1.551872E+07  1.458660E+04  1.251077E+05  1.038701E+04 -3.120898E+03 -5.099446E-02
         9  10  1.551797E+07  9.489985E+04  2.215749E+05  1.659988E+04 -6.603906E-08 -5.172385E-09
         9  11  1.549426E+07 -2.469079E+04  1.315562E+05  3.106275E+03  3.119730E-09 -7.073548E-10
         9  12  1.551872E+07  1.458659E+04  1.251077E+05 -1.038701E+04 -2.446141E-08 -5.707616E-09
         9  13  1.551797E+07  9.489934E+04  2.215748E+05  1.954599E-07  1.665802E-09  9.093391E-10
         9  14  1.549426E+07 -2.469080E+04  1.315562E+05  5.814433E-07  1.055708E-07 -1.157806E-08
         9  15  1.551872E+07  1.458640E+04  1.251077E+05  1.244949E-06 -7.671269E-08 -1.841476E-08
         9  16  1.551797E+07  9.489985E+04  2.215749E+05 -1.659988E+04  1.356216E-07  1.032837E-08
         9  17  1.549426E+07 -2.469079E+04  1.315562E+05 -3.106275E+03  5.029413E-08 -1.997395E-08
         9  18  1.551872E+07  1.458659E+04  1.251077E+05  1.038701E+04 -1.154098E-07 -2.922789E-08
         9  19  1.551799E+07  9.490453E+04  2.216079E+05  1.659988E+04 -1.341046E+05 -3.501927E+00
         9  20  1.549426E+07 -2.468967E+04  1.315641E+05  3.106275E+03 -6.549088E+04 -3.200287E-01
         9  21  1.551872E+07  1.458660E+04  1.251077E+05 -1.038701E+04  3.120898E+03 -5.099450E-02
         9  22  1.551799E+07  9.490403E+04  2.216078E+05  1.306082E-06 -1.341046E+05  3.515554E-08
         9  23  1.549426E+07 -2.468969E+04  1.315641E+05 -2.495626E-07 -6.549088E+04 -2.027396E-08
         9  24  1.551872E+07  1.458640E+04  1.251077E+05 -7.649353E-07  3.120898E+03 -4.843478E-08
         9  25  1.551799E+07  9.490453E+04  2.216079E+05 -1.659988E+04 -1.341046E+05  3.501927E+00
         9  26  1.549426E+07 -2.468967E+04  1.315641E+05 -3.106275E+03 -6.549088E+04  3.200287E-01
         9  27  1.551872E+07  1.458660E+04  1.251077E+05  1.038701E+04  3.120898E+03  5.099441E-02
        10   1  1.552133E+07  8.720527E+03  1.293554E+05  1.242180E+04 -2.631499E+04 -5.142084E-01
        10   2  1.549093E+07 -3.079684E+04  1.567819E+05 -4.470895E+03 -1.082542E+05  7.613948E-01
        10   3  1.552019E+07  1.279072E+05  2.861613E+05 -2.136396E+04 -1.901967E+05  6.392113E+00
        10   4  1.552133E+07  8.720244E+03  1.293554E+05 -1.057329E-06 -2.631499E+04  2.184505E-08
        10   5  1.549093E+07 -3.079687E+04  1.567819E+05  1.690033E-07 -1.082542E+05  2.504529E-08
        10   6  1.552019E+07  1.279064E+05  2.861612E+05 -1.933474E-06 -1.901967E+05 -3.287150E-08
        10   7  1.552133E+07  8.720527E+03  1.293554E+05 -1.242180E+04 -2.631499E+04  5.142085E-01
        10   8  1.549093E+07 -3.079684E+04  1.567819E+05  4.470895E+03 -1.082542E+05 -7.613947E-01
        10   9  1.552019E+07  1.279072E+05  2.861613E+05  2.136396E+04 -1.901967E+05 -6.392113E+00
        10  10  1.552133E+07  8.720346E+03  1.293541E+05  1.242180E+04  5.577902E-08  1.653783E-09
        10  11  1.549092E+07 -3.079989E+04  1.567604E+05 -4.470894E+03  2.037135E-08  1.871591E-08
        10  12  1.552015E+07  1.278978E+05  2.860950E+05 -2.136396E+04  7.090613E-08 -3.301715E-09
        10  13  1.552133E+07  8.720063E+03  1.293541E+05 -1.056890E-06 -6.993526E-08 -2.644306E-09
        10  14  1.549092E+07 -3.079993E+04  1.567604E+05 -1.084451E-07  7.005865E-08  2.211340E-08
        10  15  1.552015E+07  1.278970E+05  2.860949E+05  1.533527E-06  6.890449E-08 -7.546862E-09
        10  16  1.552133E+07  8.720346E+03  1.293541E+05 -1.242180E+04  1.378610E-08 -6.406153E-09
        10  17  1.549092E+07 -3.079989E+04  1.567604E+05  4.470894E+03 -4.771395E-09  2.640801E-08
        10  18  1.552015E+07  1.278978E+05  2.860950E+05  2.136396E+04 -1.061595E-08 -1.652450E-08
        10  19  1.552133E+07  8.720527E+03  1.293554E+05  1.242180E+04  2.631499E+04  5.142084E-01
        10  20  1.549093E+07 -3.079684E+04  1.567819E+05 -4.470895E+03  1.082542E+05 -7.613948E-01
        10  21  1.552019E+07  1.279072E+05  2.861613E+05 -2.136396E+04  1.901967E+05 -6.392113E+00
        10  22  1.552133E+07  8.720244E+03  1.293554E+05 -2.165958E-06  2.631499E+04 -2.710715E-08
        10  23  1.549093E+07 -3.079687E+04  1.567819E+05  1.689435E-07  1.082542E+05  2.109814E-08
        10  24  1.552019E+07  1.279064E+05  2.861612E+05 -6.862989E-07  1.901967E+05  1.760544E-08
        10  25  1.552133E+07  8.720527E+03  1.293554E+05 -1.242180E+04  2.631499E+04 -5.142084E-01
        10  26  1.549093E+07 -3.079684E+04  1.567819E+05  4.470895E+03  1.082542E+05  7.613948E-01
        10  27  1.552019E+07  1.279072E+05  2.861613E+05  2.136396E+04  1.901967E+05  6.392113E+00
        11   1  1.558620E+07 -3.251465E+04  3.399093E+05  7.206146E+04 -2.470148E+05 -2.799882E+01
        11   2  1.540834E+07 -1.952514E+05  5.100583E+05 -3.908069E+04 -5.259970E+05  3.234265E+01
        11   3  1.557904E+07  9.021004E+05  1.173821E+06 -1.502497E+05 -8.049501E+05  1.902611E+02
        11   4  1.558619E+07 -3.252417E+04  3.399079E+05  2.135906E-06 -2.470148E+05 -5.273735E-08
        11   5  1.540834E+07 -1.952542E+05  5.100579E+05  8.657816E-07 -5.259970E+05 -2.361710E-08
        11   6  1.557901E+07  9.020590E+05  1.173815E+06  3.586037E-07 -8.049501E+05 -3.777612E-09
        11   7  1.558620E+07 -3.251465E+04  3.399093E+05 -7.206146E+04 -2.470148E+05  2.799882E+01
        11   8  1.540834E+07 -1.952514E+05  5.100583E+05  3.908069E+04 -5.259970E+05 -3.234265E+01
        11   9  1.557904E+07  9.021004E+05  1.173821E+06  1.502497E+05 -8.049501E+05 -1.902611E+02
        11  10  1.558613E+07 -3.253054E+04  3.397974E+05  7.206146E+04  6.244804E-08 -6.677429E-09
        11  11  1.540805E+07 -1.953235E+05  5.095510E+05 -3.908068E+04 -1.076871E-07 -9.492906E-10
        11  12  1.557836E+07  9.019316E+05  1.172633E+06 -1.502496E+05  4.871502E-08  1.781325E-09
        11  13  1.558613E+07 -3.254006E+04  3.397961E+05  2.690886E-06  2.082620E-07 -1.767614E-08
        11  14  1.540805E+07 -1.953263E+05  5.095506E+05  1.420554E-06  1.033855E-07  1.579865E-09
        11  15  1.557833E+07  9.018902E+05  1.172627E+06  1.399269E-06  2.605975E-08  2.831395E-09
        11  16  1.558613E+07 -3.253054E+04  3.397974E+05 -7.206146E+04  4.313436E-08 -2.669117E-08
        11  17  1.540805E+07 -1.953235E+05  5.095510E+05  3.908068E+04 -2.900805E-08  6.947031E-09
        11  18  1.557836E+07  9.019316E+05  1.172633E+06  1.502496E+05 -4.501868E-08  5.501856E-09
        11  19  1.558620E+07 -3.251465E+04  3.399093E+05  7.206146E+04  2.470148E+05  2.799882E+01
        11  20  1.540834E+07 -1.952514E+05  5.100583E+05 -3.908069E+04  5.259970E+05 -3.234265E+01
        11  21  1.557904E+07  9.021004E+05  1.173821E+06 -1.502497E+05  8.049501E+05 -1.902611E+02
        11  22  1.558619E+07 -3.252417E+04  3.399079E+05  1.026827E-06  2.470148E+05  1.599734E-08
        11  23  1.540834E+07 -1.952542E+05  5.100579E+05  1.975288E-06  5.259970E+05  2.870123E-08
        11  24  1.557901E+07  9.020590E+05  1.173815E+06  2.893243E-07  8.049501E+05  9.864043E-09
        11  25  1.558620E+07 -3.251465E+04  3.399093E+05 -7.206146E+04  2.470148E+05 -2.799882E+01
        11  26  1.540834E+07 -1.952514E+05  5.100583E+05  3.908069E+04  5.259970E+05  3.234265E+01
        11  27  1.557904E+07  9.021004E+05  1.173821E+06  1.502497E+05  8.049501E+05  1.902611E+02
        12   1 -1.605120E+07 -5.468854E+07 -1.638636E+07  3.944336E+06 -3.910663E+05 -1.893544E+06
        12   2 -1.363724E+07 -5.266411E+07 -1.451866E+07 -4.208998E+06 -9.970459E+05 -9.236689E+05
        12   3 -9.961655E+06 -4.074100E+07 -1.088071E+07 -6.857663E+05 -6.072434E+05 -3.134546E+04
        12   4 -1.477824E+06  1.626037E+06 -1.871759E+06  4.851852E+06 -3.833037E+05 -1.741018E+06
        12   5 -6.629421E+05 -3.712120E+06 -1.908561E+06 -1.148695E+06 -9.929945E+05 -9.354956E+05