
 stresses (elem, integ.pnt.,sxx,syy,szz,sxy,sxz,syz) for set ELALL and time  0.1000000E+01

         1   1  4.633048E+06  2.422504E+05  2.985611E+05  9.994937E+04  2.019411E+05  3.228129E+01
         1   2  4.595879E+06 -1.664798E+04  1.363343E+05  3.213089E+04  1.291166E+05  6.635348E+00
         1   3  4.633608E+06 -1.316130E+04  8.687322E+04 -3.568357E+04  5.628978E+04 -3.212404E+00
         1   4  4.633038E+06  2.422317E+05  2.985584E+05 -4.319963E-09  2.019411E+05  4.865498E-10
         1   5  4.595878E+06 -1.664990E+04  1.363340E+05  4.376955E-09  1.291166E+05  6.372507E-10
         1   6  4.633607E+06 -1.316368E+04  8.687288E+04 -3.881331E-09  5.628978E+04 -4.412387E-10
         1   7  4.633048E+06  2.422504E+05  2.985611E+05 -9.994937E+04  2.019411E+05 -3.228129E+01
         1   8  4.595879E+06 -1.664798E+04  1.363343E+05 -3.213089E+04  1.291166E+05 -6.635348E+00
         1   9  4.633608E+06 -1.316130E+04  8.687322E+04  3.568357E+04  5.628978E+04  3.212404E+00
         1  10  4.633005E+06  2.422395E+05  2.984850E+05  9.994937E+04 -1.111521E-09  5.524341E-10
         1  11  4.595861E+06 -1.665241E+04  1.363032E+05  3.213089E+04  1.619358E-09  9.242730E-10
         1  12  4.633605E+06 -1.316214E+04  8.686731E+04 -3.568357E+04  9.186383E-11 -1.139642E-10
         1  13  4.632994E+06  2.422209E+05  2.984823E+05 -2.060584E-09 -5.952300E-28  3.593651E-10
         1  14  4.595860E+06 -1.665434E+04  1.363029E+05 -5.354221E-09  5.653371E-10  8.804658E-10
         1  15  4.633603E+06 -1.316452E+04  8.686697E+04 -5.647994E-10 -6.184491E-10  2.153327E-10
         1  16  4.633005E+06  2.422395E+05  2.984850E+05 -9.994937E+04 -1.214773E-09  9.979374E-11
         1  17  4.595861E+06 -1.665241E+04  1.363032E+05 -3.213089E+04 -1.372156E-09  9.661572E-10
         1  18  4.633605E+06 -1.316214E+04  8.686731E+04  3.568357E+04 -1.395483E-09  4.537986E-10
         1  19  4.633048E+06  2.422504E+05  2.985611E+05  9.994937E+04 -2.019411E+05 -3.228129E+01
         1  20  4.595879E+06 -1.664798E+04  1.363343E+05  3.213089E+04 -1.291166E+05 -6.635348E+00
         1  21  4.633608E+06 -1.316130E+04  8.687322E+04 -3.568357E+04 -5.628978E+04  3.212404E+00
         1  22  4.633038E+06  2.422317E+05  2.985584E+05 -8.408322E-09 -2.019411E+05  3.593858E-10
         1  23  4.595878E+06 -1.664990E+04  1.363340E+05 -4.283888E-09 -1.291166E+05  1.078387E-09
         1  24  4.633607E+06 -1.316368E+04  8.687288E+04 -6.056605E-09 -5.628978E+04  9.250269E-10
         1  25  4.633048E+06  2.422504E+05  2.985611E+05 -9.994937E+04 -2.019411E+05  3.228129E+01
         1  26  4.595879E+06 -1.664798E+04  1.363343E+05 -3.213089E+04 -1.291166E+05  6.635348E+00
         1  27  4.633608E+06 -1.316130E+04  8.687322E+04  3.568357E+04 -5.628978E+04 -3.212404E+00
         2   1  4.618836E+06  1.793723E+04  7.345922E+04  6.758208E+03  4.299333E+04  4.647028E-01
         2   2  4.614396E+06 -1.797858E+03  4.967320E+04  1.738308E+03  1.795108E+04  4.990703E-02
         2   3  4.618887E+06  1.280155E+03  4.780652E+04 -3.281598E+03 -7.090953E+03  3.721614E-02
         2   4  4.618836E+06  1.793715E+04  7.345921E+04  4.746252E-09  4.299333E+04 -8.328499E-10
         2   5  4.614396E+06 -1.797864E+03  4.967320E+04  1.241403E-09  1.795108E+04  1.484075E-10
         2   6  4.618887E+06  1.280134E+03  4.780652E+04 -1.450030E-09 -7.090953E+03 -7.147645E-13
         2   7  4.618836E+06  1.793723E+04  7.345922E+04 -6.758208E+03  4.299333E+04 -4.647028E-01
         2   8  4.614396E+06 -1.797858E+03  4.967320E+04 -1.738308E+03  1.795108E+04 -4.990703E-02
         2   9  4.618887E+06  1.280155E+03  4.780652E+04  3.281598E+03 -7.090953E+03 -3.721614E-02
         2  10  4.618834E+06  1.793674E+04  7.345578E+04  6.758208E+03 -9.052977E-10 -5.461356E-10
         2  11  4.614396E+06 -1.797944E+03  4.967260E+04  1.738308E+03 -8.815151E-10  2.191227E-11
         2  12  4.618887E+06  1.280141E+03  4.780643E+04 -3.281598E+03  7.826373E-11  3.480196E-10
         2  13  4.618834E+06  1.793666E+04  7.345576E+04  6.891525E-09  8.399977E-10 -2.818250E-10
         2  14  4.614396E+06 -1.797950E+03  4.967260E+04 -3.040608E-09 -2.597613E-10 -2.868051E-10
         2  15  4.618887E+06  1.280121E+03  4.780642E+04  5.479213E-10 -7.794117E-10  1.198141E-10
         2  16  4.618834E+06  1.793674E+04  7.345578E+04 -6.758208E+03  1.799839E-10  2.539065E-11
         2  17  4.614396E+06 -1.797944E+03  4.967260E+04 -1.738308E+03  5.308382E-10 -5.502043E-10
         2  18  4.618887E+06  1.280141E+03  4.780643E+04  3.281598E+03  7.511894E-10 -2.443148E-10
         2  19  4.618836E+06  1.793723E+04  7.345922E+04  6.758208E+03 -4.299333E+04 -4.647028E-01
         2  20  4.614396E+06 -1.797858E+03  4.967320E+04  1.738308E+03 -1.795108E+04 -4.990703E-02
         2  21  4.618887E+06  1.280155E+03  4.780652E+04 -3.281598E+03  7.090953E+03 -3.721614E-02
         2  22  4.618836E+06  1.793715E+04  7.345921E+04  8.943871E-09 -4.299333E+04  1.497413E-10
         2  23  4.614396E+06 -1.797864E+03  4.967320E+04  1.317419E-09 -1.795108E+04 -9.182686E-10
         2  24  4.618887E+06  1.280134E+03  4.780652E+04 -9.396099E-10  7.090953E+03  1.794401E-10
         2  25  4.618836E+06  1.793723E+04  7.345922E+04 -6.758208E+03 -4.299333E+04  4.647028E-01
         2  26  4.614396E+06 -1.797858E+03  4.967320E+04 -1.738308E+03 -1.795108E+04  4.990703E-02
         2  27  4.618887E+06  1.280155E+03  4.780652E+04  3.281598E+03  7.090953E+03  3.721614E-02
         3   1  4.620033E+06 -5.982258E+02  5.153045E+04  5.716423E+03 -1.586397E+04 -1.450364E-01
         3   2  4.612938E+06 -2.873836E+03  7.063491E+04 -2.886769E+03 -5.158264E+04  2.381560E-01
         3   3  4.619907E+06  3.270495E+04  1.223354E+05 -1.148974E+04 -8.730177E+04  1.604269E+00
         3   4  4.620033E+06 -5.982868E+02  5.153044E+04 -8.224367E-12 -1.586397E+04 -2.665883E-10
         3   5  4.612938E+06 -2.873852E+03  7.063491E+04 -2.411424E-09 -5.158264E+04 -3.539649E-10
         3   6  4.619907E+06  3.270471E+04  1.223353E+05 -1.796992E-09 -8.730177E+04 -9.893897E-11
         3   7  4.620033E+06 -5.982258E+02  5.153045E+04 -5.716423E+03 -1.586397E+04  1.450364E-01
         3   8  4.612938E+06 -2.873836E+03  7.063491E+04  2.886769E+03 -5.158264E+04 -2.381560E-01
         3   9  4.619907E+06  3.270495E+04  1.223354E+05  1.148974E+04 -8.730177E+04 -1.604269E+00
         3  10  4.620033E+06 -5.982927E+02  5.152998E+04  5.716423E+03  6.862569E-10  2.371579E-10
         3  11  4.612935E+06 -2.874544E+03  7.062994E+04 -2.886769E+03 -9.521312E-10 -5.372624E-11
         3  12  4.619899E+06  3.270292E+04  1.223212E+05 -1.148974E+04  7.077474E-10  2.323337E-11
         3  13  4.620033E+06 -5.983537E+02  5.152997E+04 -2.195685E-09 -2.389082E-10  2.385999E-10
         3  14  4.612935E+06 -2.874560E+03  7.062994E+04  1.900085E-09  2.158065E-09 -1.090716E-10
         3  15  4.619899E+06  3.270268E+04  1.223211E+05 -9.835650E-10 -4.717254E-10  7.894216E-11
         3  16  4.620033E+06 -5.982927E+02  5.152998E+04 -5.716423E+03  4.549488E-10  1.813428E-10
         3  17  4.612935E+06 -2.874544E+03  7.062994E+04  2.886769E+03 -5.366867E-10  1.803136E-10
         3  18  4.619899E+06  3.270292E+04  1.223212E+05  1.148974E+04  4.288403E-10  4.730637E-10
         3  19  4.620033E+06 -5.982258E+02  5.153045E+04  5.716423E+03  1.586397E+04  1.450364E-01
         3  20  4.612938E+06 -2.873836E+03  7.063491E+04 -2.886769E+03  5.158264E+04 -2.381560E-01
         3  21  4.619907E+06  3.270495E+04  1.223354E+05 -1.148974E+04  8.730177E+04 -1.604269E+00
         3  22  4.620033E+06 -5.982868E+02  5.153044E+04 -1.517824E-10  1.586397E+04  7.324780E-10
         3  23  4.612938E+06 -2.873852E+03  7.063491E+04 -1.357829E-09  5.158264E+04  1.943561E-10
         3  24  4.619907E+06  3.270471E+04  1.223353E+05  4.444979E-09  8.730177E+04  3.498042E-10
         3  25  4.620033E+06 -5.982258E+02  5.153045E+04 -5.716423E+03  1.586397E+04 -1.450364E-01
         3  26  4.612938E+06 -2.873836E+03  7.063491E+04  2.886769E+03  5.158264E+04  2.381560E-01
         3  27  4.619907E+06  3.270495E+04  1.223354E+05  1.148974E+04  8.730177E+04  1.604269E+00
         4   1  4.647098E+06 -2.401928E+04  1.495448E+05  6.489834E+04 -1.097170E+05 -1.138760E+01
         4   2  4.578849E+06 -3.012669E+04  2.435236E+05 -5.805174E+04 -2.398995E+05  2.227498E+01
         4   3  4.646103E+06  4.392200E+05  5.407094E+05 -1.810198E+05 -3.700799E+05  1.071449E+02
         4   4  4.647093E+06 -2.402714E+04  1.495437E+05  4.389993E-10 -1.097170E+05 -5.382664E-10
         4   5  4.578845E+06 -3.013298E+04  2.435227E+05 -5.364163E-09 -2.398995E+05 -8.935302E-10
         4   6  4.646068E+06  4.391589E+05  5.407007E+05 -5.504103E-09 -3.700799E+05 -2.077578E-10
         4   7  4.647098E+06 -2.401928E+04  1.495448E+05 -6.489834E+04 -1.097170E+05  1.138760E+01
         4   8  4.578849E+06 -3.012669E+04  2.435236E+05  5.805174E+04 -2.398995E+05 -2.227498E+01
         4   9  4.646103E+06  4.392200E+05  5.407094E+05  1.810198E+05 -3.700799E+05 -1.071449E+02
         4  10  4.647085E+06 -2.402248E+04  1.495224E+05  6.489834E+04  8.092362E-10 -9.257319E-11
         4  11  4.578787E+06 -3.014200E+04  2.434162E+05 -5.805174E+04 -1.127652E-09 -5.393515E-10
         4  12  4.645957E+06  4.391836E+05  5.404540E+05 -1.810198E+05 -2.555170E-11 -2.871793E-10
         4  13  4.647080E+06 -2.403034E+04  1.495212E+05 -1.706179E-09  1.148731E-09  7.622222E-12
         4  14  4.578784E+06 -3.014829E+04  2.434153E+05 -6.443158E-09  1.414017E-09 -3.223574E-10
         4  15  4.645922E+06  4.391225E+05  5.404452E+05  3.428220E-09  1.455871E-09 -9.771685E-11
         4  16  4.647085E+06 -2.402248E+04  1.495224E+05 -6.489834E+04  8.283768E-10  5.659416E-12
         4  17  4.578787E+06 -3.014200E+04  2.434162E+05  5.805174E+04 -5.187985E-10  3.733201E-11
         4  18  4.645957E+06  4.391836E+05  5.404540E+05  1.810198E+05  1.022805E-09  1.089017E-10
         4  19  4.647098E+06 -2.401928E+04  1.495448E+05  6.489834E+04  1.097170E+05  1.138760E+01
         4  20  4.578849E+06 -3.012669E+04  2.435236E+05 -5.805174E+04  2.398995E+05 -2.227498E+01
         4  21  4.646103E+06  4.392200E+05  5.407094E+05 -1.810198E+05  3.700799E+05 -1.071449E+02
         4  22  4.647093E+06 -2.402714E+04  1.495437E+05  4.649041E-09  1.097170E+05  6.023482E-10
         4  23  4.578845E+06 -3.013298E+04  2.435227E+05  2.166412E-09  2.398995E+05  4.958749E-10
         4  24  4.646068E+06  4.391589E+05  5.407007E+05 -3.299469E-09  3.700799E+05 -4.239769E-11
         4  25  4.647098E+06 -2.401928E+04  1.495448E+05 -6.489834E+04  1.097170E+05 -1.138760E+01
         4  26  4.578849E+06 -3.012669E+04  2.435236E+05  5.805174E+04  2.398995E+05  2.227498E+01
         4  27  4.646103E+06  4.392200E+05  5.407094E+05  1.810198E+05  3.700799E+05  1.071449E+02
         5   1 -1.396497E+06 -3.194403E+06 -1.470982E+06  6.426711E+05 -4.460055E+04 -4.339513E+05
         5   2 -7.525322E+05 -2.288602E+06 -9.487867E+05  3.124535E+05 -1.266209E+05 -2.416124E+05
         5   3 -5.482990E+05 -1.513951E+06 -6.615778E+05  4.184186E+05 -1.014425E+05 -4.916470E+04
         5   4 -3.975965E+05  8.129233E+05 -4.881834E+05  4.842181E+05 -4.434448E+04 -3.377390E+05
         5   5  2.633406E+04  8.723707E+05 -2.168540E+05  2.657436E+05 -1.265072E+05 -2.215740E+05
         5   6  2.508834E+04  8.141167E+05 -1.265858E+05  4.834836E+05 -1.016432E+05 -1.055781E+05
         5   7  6.002150E+05  4.834984E+06  4.934870E+05  3.247264E+05 -4.413894E+04 -2.408989E+05
         5   8  8.045076E+05  4.042596E+06  5.144133E+05  2.187860E+05 -1.263968E+05 -2.014318E+05
         5   9  5.981136E+05  3.147220E+06  4.080621E+05  5.487883E+05 -1.018554E+05 -1.622010E+05
         5  10 -1.396550E+06 -3.194607E+06 -1.471341E+06  6.426555E+05 -5.870859E-10  7.024689E-11
         5  11 -7.525652E+05 -2.288669E+06 -9.489269E+05  3.124288E+05 -6.620632E-10  4.414590E-10
         5  12 -5.483107E+05 -1.513956E+06 -6.616017E+05  4.184146E+05  6.264248E-10  4.258411E-10
         5  13 -3.976291E+05  8.128003E+05 -4.884011E+05  4.842061E+05  9.701151E-10  5.936983E-11
         5  14  2.630372E+04  8.723138E+05 -2.169762E+05  2.657210E+05  4.888472E-10  7.272110E-11
         5  15  2.507427E+04  8.141020E+05 -1.266261E+05  4.834750E+05 -1.664384E-10  6.540657E-11
         5  16  6.001975E+05  4.834921E+06  4.933751E+05  3.247179E+05 -1.112553E-09  1.183275E-10
         5  17  8.044797E+05  4.042548E+06  5.143076E+05  2.187655E+05  3.865481E-10 -3.772161E-10
         5  18  5.980955E+05  3.147189E+06  4.079935E+05  5.487751E+05 -5.766908E-10 -7.481275E-10
         5  19 -1.396497E+06 -3.194403E+06 -1.470982E+06  6.426711E+05  4.460055E+04  4.339513E+05
         5  20 -7.525322E+05 -2.288602E+06 -9.487867E+05  3.124535E+05  1.266209E+05  2.416124E+05
         5  21 -5.482990E+05 -1.513951E+06 -6.615778E+05  4.184186E+05  1.014425E+05  4.916470E+04
         5  22 -3.975965E+05  8.129233E+05 -4.881834E+05  4.842181E+05  4.434448E+04  3.377390E+05
         5  23  2.633406E+04  8.723707E+05 -2.168540E+05  2.657436E+05  1.265072E+05  2.215740E+05
         5  24  2.508834E+04  8.141167E+05 -1.265858E+05  4.834836E+05  1.016432E+05  1.055781E+05
         5  25  6.002150E+05  4.834984E+06  4.934870E+05  3.247264E+05  4.413894E+04  2.408989E+05
         5  26  8.045076E+05  4.042596E+06  5.144133E+05  2.187860E+05  1.263968E+05  2.014318E+05
         5  27  5.981136E+05  3.147220E+06  4.080621E+05  5.487883E+05  1.018554E+05  1.622010E+05
         6   1 -4.024141E+05 -6.880328E+05 -4.509941E+05  4.886075E+05 -6.448493E+04 -6.293817E+04
         6   2 -1.655185E+05  1.542970E+05 -2.029060E+05  2.659678E+05 -2.975809E+04 -3.952338E+04
         6   3  4.759288E+04  9.842917E+05  2.297025E+04  4.811256E+05  6.592163E+03 -1.612403E+04
         6   4 -2.694290E+04  8.382337E+05 -9.951947E+04  4.841478E+05 -6.458099E+04 -8.738029E+04
         6   5  4.205136E+03  8.447350E+05 -4.424826E+04  2.651764E+05 -2.987147E+04 -6.508403E+04
         6   6  1.184781E+04  8.385079E+05 -1.030165E+04  4.839784E+05  6.458650E+03 -4.283420E+04
         6   7  3.483660E+05  2.366656E+06  2.518030E+05  4.796740E+05 -6.467656E+04 -1.118819E+05
         6   8  1.738959E+05  1.535615E+06  1.143804E+05  2.643835E+05 -2.998470E+04 -9.067284E+04
         6   9 -2.389831E+04  6.927453E+05 -4.357224E+04  4.868304E+05  6.324873E+03 -6.953817E+04
         6  10 -4.024196E+05 -6.880381E+05 -4.510093E+05  4.886042E+05  1.760150E-09 -6.671525E-10
         6  11 -1.655199E+05  1.542950E+05 -2.029106E+05  2.659668E+05 -3.479292E-10 -9.123944E-10
         6  12  4.759276E+04  9.842914E+05  2.296968E+04  4.811257E+05 -5.814717E-10 -2.726969E-09
         6  13 -2.694942E+04  8.382244E+05 -9.954162E+04  4.841433E+05  1.336575E-10 -1.211758E-10
         6  14  4.203044E+03  8.447302E+05 -4.425789E+04  2.651748E+05 -1.874417E-09 -2.157734E-11
         6  15  1.184727E+04  8.385059E+05 -1.030517E+04  4.839786E+05  3.039312E-10  2.057566E-11
         6  16  3.483582E+05  2.366642E+06  2.517717E+05  4.796682E+05  8.306623E-11  6.465625E-10
         6  17  1.738928E+05  1.535606E+06  1.143633E+05  2.643813E+05 -4.061861E-10  9.639219E-10
         6  18 -2.389965E+04  6.927401E+05 -4.358140E+04  4.868307E+05  1.528782E-09  2.809488E-09
         6  19 -4.024141E+05 -6.880328E+05 -4.509941E+05  4.886075E+05  6.448493E+04  6.293817E+04
         6  20 -1.655185E+05  1.542970E+05 -2.029060E+05  2.659678E+05  2.975809E+04  3.952338E+04
         6  21  4.759288E+04  9.842917E+05  2.297025E+04  4.811256E+05 -6.592163E+03  1.612403E+04
         6  22 -2.694290E+04  8.382337E+05 -9.951947E+04  4.841478E+05  6.458099E+04  8.738029E+04
         6  23  4.205136E+03  8.447350E+05 -4.424826E+04  2.651764E+05  2.987147E+04  6.508403E+04
         6  24  1.184781E+04  8.385079E+05 -1.030165E+04  4.839784E+05 -6.458650E+03  4.283420E+04
         6  25  3.483660E+05  2.366656E+06  2.518030E+05  4.796740E+05  6.467656E+04  1.118819E+05
         6  26  1.738959E+05  1.535615E+06  1.143804E+05  2.643835E+05  2.998470E+04  9.067284E+04
         6  27 -2.389831E+04  6.927453E+05 -4.357224E+04  4.868304E+05 -6.324873E+03  6.953817E+04
         7   1  2.305926E+05  1.793792E+06  2.206287E+05  4.757695E+05  3.989213E+04  5.573336E+03
         7   2  4.344823E+05  2.617045E+06  4.439813E+05  2.805660E+05  6.928948E+04 -6.462421E+04
         7   3  7.328703E+05  3.471783E+06  7.359509E+05  5.210679E+05  2.582859E+04 -1.346635E+05
         7   4 -2.149366E+03  8.459881E+05  2.746063E+03  4.836707E+05  3.966443E+04 -4.211818E+04
         7   5 -3.824377E+03  8.346461E+05  3.185735E+04  2.656501E+05  6.932380E+04 -5.964091E+04
         7   6  8.007583E+04  8.451650E+05  9.323203E+04  4.833832E+05  2.603674E+04 -7.690916E+04
         7   7 -2.349524E+05 -1.009819E+05 -2.151873E+05  4.915586E+05  3.943533E+04 -8.973759E+04
         7   8 -4.423531E+05 -9.448264E+05 -3.804786E+05  2.507738E+05  6.935795E+04 -5.467157E+04
         7   9 -5.732218E+05 -1.775186E+06 -5.499780E+05  4.458500E+05  2.623844E+04 -1.939707E+04
         7  10  2.305909E+05  1.793792E+06  2.206256E+05  4.757693E+05  4.999803E-10 -1.657507E-08
         7  11  4.344760E+05  2.617039E+06  4.439645E+05  2.805696E+05  7.083654E-10 -1.093068E-09
         7  12  7.328647E+05  3.471764E+06  7.359157E+05  5.210707E+05  8.687852E-10  1.279283E-08
         7  13 -2.151533E+03  8.459857E+05  2.739770E+03  4.836721E+05  1.796863E-09  1.142914E-10
         7  14 -3.830496E+03  8.346410E+05  3.184164E+04  2.656534E+05  1.989424E-09  1.279215E-10
         7  15  8.007351E+04  8.451585E+05  9.321965E+04  4.833848E+05  7.933813E-10 -3.480420E-11
         7  16 -2.349562E+05 -1.009910E+05 -2.152054E+05  4.915614E+05  1.791590E-09  1.647432E-08
         7  17 -4.423590E+05 -9.448309E+05 -3.804932E+05  2.507768E+05  7.478197E-10  1.202388E-09
         7  18 -5.732227E+05 -1.775186E+06 -5.499800E+05  4.458504E+05 -6.168294E-12 -1.265393E-08
         7  19  2.305926E+05  1.793792E+06  2.206287E+05  4.757695E+05 -3.989213E+04 -5.573336E+03
         7  20  4.344823E+05  2.617045E+06  4.439813E+05  2.805660E+05 -6.928948E+04  6.462421E+04
         7  21  7.328703E+05  3.471783E+06  7.359509E+05  5.210679E+05 -2.582859E+04  1.346635E+05
         7  22 -2.149366E+03  8.459881E+05  2.746063E+03  4.836707E+05 -3.966443E+04  4.211818E+04
         7  23 -3.824377E+03  8.346461E+05  3.185735E+04  2.656501E+05 -6.932380E+04  5.964091E+04
         7  24  8.007583E+04  8.451650E+05  9.323203E+04  4.833832E+05 -2.603674E+04  7.690916E+04
         7  25 -2.349524E+05 -1.009819E+05 -2.151873E+05  4.915586E+05 -3.943533E+04  8.973759E+04
         7  26 -4.423531E+05 -9.448264E+05 -3.804786E+05  2.507738E+05 -6.935795E+04  5.467157E+04
         7  27 -5.732218E+05 -1.775186E+06 -5.499780E+05  4.458500E+05 -2.623844E+04  1.939707E+04
         8   1  1.947980E+06  1.034568E+06 -6.010220E+04  1.525786E+06  7.724756E+04  7.311291E+04
         8   2  1.978537E+06  9.769352E+05 -1.227959E+05  1.638813E+06  4.033797E+04  7.605872E+04
         8   3  2.163649E+06  9.795826E+05 -1.252071E+05  1.674264E+06  1.942423E+04  5.765187E+04
         8   4  2.775120E+06  1.515287E+06  1.951663E+05  1.885769E+06  9.925717E+04  8.959612E+04
         8   5  2.666311E+06  1.430088E+06  8.813736E+04  1.964741E+06  4.686235E+04  8.093792E+04
         8   6  2.715276E+06  1.408396E+06  5.469357E+04  1.966161E+06  1.046129E+04  5.094250E+04
         8   7  3.602978E+06  1.996217E+06  4.503584E+05  2.246232E+06  1.213068E+05  1.061022E+05
         8   8  3.354586E+06  1.883450E+06  2.990147E+05  2.291057E+06  5.339648E+04  8.582375E+04
         8   9  3.267226E+06  1.837418E+06  2.345545E+05  2.258361E+06  1.487620E+03  4.422404E+04
         8  10  1.947973E+06  1.034561E+06 -6.012335E+04  1.525782E+06 -2.191855E-09 -2.559003E-10
         8  11  1.978534E+06  9.769285E+05 -1.228098E+05  1.638811E+06  2.209483E-10  2.633294E-09
         8  12  2.163648E+06  9.795790E+05 -1.252140E+05  1.674263E+06  7.080950E-09  6.255970E-09
         8  13  2.775107E+06  1.515276E+06  1.951329E+05  1.885762E+06 -4.072387E-10 -5.710508E-11
         8  14  2.666307E+06  1.430080E+06  8.812101E+04  1.964738E+06  1.183974E-09  5.543329E-10
         8  15  2.715275E+06  1.408394E+06  5.468851E+04  1.966161E+06  3.251969E-09  2.438540E-09
         8  16  3.602960E+06  1.996201E+06  4.503100E+05  2.246221E+06 -5.972778E-10  6.197086E-10
         8  17  3.354581E+06  1.883441E+06  2.989957E+05  2.291054E+06 -2.485699E-09 -1.386583E-09
         8  18  3.267226E+06  1.837416E+06  2.345508E+05  2.258361E+06 -1.416497E-09 -1.044910E-09
         8  19  1.947980E+06  1.034568E+06 -6.010220E+04  1.525786E+06 -7.724756E+04 -7.311291E+04
         8  20  1.978537E+06  9.769352E+05 -1.227959E+05  1.638813E+06 -4.033797E+04 -7.605872E+04
         8  21  2.163649E+06  9.795826E+05 -1.252071E+05  1.674264E+06 -1.942423E+04 -5.765187E+04
         8  22  2.775120E+06  1.515287E+06  1.951663E+05  1.885769E+06 -9.925717E+04 -8.959612E+04
         8  23  2.666311E+06  1.430088E+06  8.813736E+04  1.964741E+06 -4.686235E+04 -8.093792E+04
         8  24  2.715276E+06  1.408396E+06  5.469357E+04  1.966161E+06 -1.046129E+04 -5.094250E+04
         8  25  3.602978E+06  1.996217E+06  4.503584E+05  2.246232E+06 -1.213068E+05 -1.061022E+05
         8  26  3.354586E+06  1.883450E+06  2.990147E+05  2.291057E+06 -5.339648E+04 -8.582375E+04
         8  27  3.267226E+06  1.837418E+06  2.345545E+05  2.258361E+06 -1.487620E+03 -4.422404E+04
         9   1  2.225467E+06  1.078375E+06 -1.079101E+05  1.711359E+06  1.016971E+04  4.230112E+04
         9   2  2.280900E+06  1.160782E+06 -9.728127E+04  1.769025E+06  2.613199E+03  3.094566E+04
         9   3  2.406013E+06  1.191915E+06 -7.497004E+04  1.804661E+06 -4.211744E+03  1.860016E+04
         9   4  2.715740E+06  1.418607E+06  4.513010E+04  1.951750E+06  7.901198E+03  4.060113E+04
         9   5  2.678670E+06  1.440273E+06  2.725946E+04  1.965711E+06 -3.796231E+02  2.870575E+04
         9   6  2.711415E+06  1.410815E+06  2.168649E+04  1.957636E+06 -7.927074E+03  1.582223E+04
         9   7  3.206272E+06  1.758964E+06  1.981423E+05  2.192353E+06  5.630231E+03  3.889935E+04
         9   8  3.076608E+06  1.719848E+06  1.517809E+05  2.162537E+06 -3.375046E+03  2.646391E+04
         9   9  3.016913E+06  1.629765E+06  1.183307E+05  2.110693E+06 -1.164485E+04  1.304244E+04
         9  10  2.225467E+06  1.078373E+06 -1.079136E+05  1.711359E+06  2.035226E-09  9.109043E-11
         9  11  2.280900E+06  1.160781E+06 -9.728308E+04  1.769025E+06  5.580107E-10 -2.202888E-09
         9  12  2.406013E+06  1.191914E+06 -7.497072E+04  1.804661E+06 -5.842038E-10 -8.932995E-11
         9  13  2.715739E+06  1.418605E+06  4.512690E+04  1.951750E+06  3.610487E-09  1.996649E-09
         9  14  2.678670E+06  1.440273E+06  2.725791E+04  1.965711E+06 -6.977194E-10 -4.785742E-10
         9  15  2.711414E+06  1.410814E+06  2.168590E+04  1.957636E+06 -8.060168E-10 -1.046188E-11
         9  16  3.206271E+06  1.758962E+06  1.981394E+05  2.192353E+06  6.414224E-09  4.034931E-09
         9  17  3.076608E+06  1.719848E+06  1.517795E+05  2.162537E+06  1.461283E-09  1.401146E-09
         9  18  3.016913E+06  1.629764E+06  1.183301E+05  2.110694E+06 -7.779474E-10  5.227117E-10
         9  19  2.225467E+06  1.078375E+06 -1.079101E+05  1.711359E+06 -1.016971E+04 -4.230112E+04
         9  20  2.280900E+06  1.160782E+06 -9.728127E+04  1.769025E+06 -2.613199E+03 -3.094566E+04
         9  21  2.406013E+06  1.191915E+06 -7.497004E+04  1.804661E+06  4.211744E+03 -1.860016E+04
         9  22  2.715740E+06  1.418607E+06  4.513010E+04  1.951750E+06 -7.901198E+03 -4.060113E+04
         9  23  2.678670E+06  1.440273E+06  2.725946E+04  1.965711E+06  3.796231E+02 -2.870575E+04
         9  24  2.711415E+06  1.410815E+06  2.168649E+04  1.957636E+06  7.927074E+03 -1.582223E+04
         9  25  3.206272E+06  1.758964E+06  1.981423E+05  2.192353E+06 -5.630231E+03 -3.889935E+04
         9  26  3.076608E+06  1.719848E+06  1.517809E+05  2.162537E+06  3.375046E+03 -2.646391E+04
         9  27  3.016913E+06  1.629765E+06  1.183307E+05  2.110693E+06  1.164485E+04 -1.304244E+04
        10   1  2.487181E+06  1.254842E+06 -4.827489E+04  1.846342E+06 -5.477724E+03  1.314594E+04
        10   2  2.543640E+06  1.344485E+06 -1.740427E+04  1.898142E+06 -1.208801E+04  9.561429E+02
        10   3  2.663341E+06  1.378147E+06  2.274890E+04  1.931448E+06 -1.870713E+04 -1.122895E+04
        10   4  2.711084E+06  1.411746E+06  2.140276E+04  1.956928E+06 -8.844896E+03  1.062909E+04
        10   5  2.679870E+06  1.440463E+06  2.527003E+04  1.965634E+06 -1.545349E+04 -1.558787E+03
        10   6  2.711889E+06  1.413195E+06  3.841721E+04  1.955839E+06 -2.206907E+04 -1.374056E+04
        10   7  2.935041E+06  1.568676E+06  9.107442E+04  2.067559E+06 -1.221371E+04  8.111023E+03
        10   8  2.816121E+06  1.536451E+06  6.794231E+04  2.033143E+06 -1.881999E+04 -4.074469E+03
        10   9  2.760439E+06  1.448244E+06  5.408540E+04  1.980233E+06 -2.543140E+04 -1.625246E+04
        10  10  2.487181E+06  1.254842E+06 -4.827527E+04  1.846342E+06  1.132745E-09  1.622916E-09
        10  11  2.543639E+06  1.344485E+06 -1.740454E+04  1.898142E+06 -4.947968E-09 -1.612303E-09
        10  12  2.663341E+06  1.378147E+06  2.274801E+04  1.931448E+06 -5.306969E-09 -2.666450E-09
        10  13  2.711084E+06  1.411746E+06  2.140240E+04  1.956928E+06 -3.386711E-09  4.600761E-11
        10  14  2.679870E+06  1.440463E+06  2.526958E+04  1.965634E+06 -2.301815E-09 -1.365061E-09
        10  15  2.711888E+06  1.413194E+06  3.841595E+04  1.955839E+06  1.365427E-09 -6.805468E-10
        10  16  2.935041E+06  1.568676E+06  9.107401E+04  2.067559E+06 -4.246521E-09 -9.480303E-10
        10  17  2.816120E+06  1.536451E+06  6.794162E+04  2.033143E+06 -3.182016E-09 -7.982378E-10
        10  18  2.760438E+06  1.448244E+06  5.408370E+04  1.980233E+06  4.173701E-09  1.242236E-09
        10  19  2.487181E+06  1.254842E+06 -4.827489E+04  1.846342E+06  5.477724E+03 -1.314594E+04
        10  20  2.543640E+06  1.344485E+06 -1.740427E+04  1.898142E+06  1.208801E+04 -9.561429E+02
        10  21  2.663341E+06  1.378147E+06  2.274890E+04  1.931448E+06  1.870713E+04  1.122895E+04
        10  22  2.711084E+06  1.411746E+06  2.140276E+04  1.956928E+06  8.844896E+03 -1.062909E+04
        10  23  2.679870E+06  1.440463E+06  2.527003E+04  1.965634E+06  1.545349E+04  1.558787E+03
        10  24  2.711889E+06  1.413195E+06  3.841721E+04  1.955839E+06  2.206907E+04  1.374056E+04
        10  25  2.935041E+06  1.568676E+06  9.107442E+04  2.067559E+06  1.221371E+04 -8.111023E+03
        10  26  2.816121E+06  1.536451E+06  6.794231E+04  2.033143E+06  1.881999E+04  4.074469E+03
        10  27  2.760439E+06  1.448244E+06  5.408540E+04  1.980233E+06  2.543140E+04  1.625246E+04
        11   1  2.739186E+06  1.441669E+06  5.897051E+04  1.978564E+06 -2.254376E+04 -1.847025E+04
        11   2  2.800592E+06  1.519200E+06  1.174848E+05  2.024154E+06 -5.186202E+04 -4.752102E+04
        11   3  2.948943E+06  1.572360E+06  2.139360E+05  2.038142E+06 -8.167298E+04 -7.592473E+04
        11   4  2.712007E+06  1.411005E+06  4.803200E+04  1.959807E+06 -2.609568E+04 -2.112332E+04
        11   5  2.676323E+06  1.437161E+06  7.954181E+04  1.965145E+06 -5.493452E+04 -4.981743E+04
        11   6  2.727482E+06  1.438850E+06  1.485885E+05  1.938877E+06 -8.425932E+04 -7.786098E+04
        11   7  2.684829E+06  1.380342E+06  3.709354E+04  1.941051E+06 -2.964736E+04 -2.377610E+04
        11   8  2.552070E+06  1.355129E+06  4.159724E+04  1.906149E+06 -5.800617E+04 -5.211325E+04
        11   9  2.506074E+06  1.305357E+06  8.323592E+04  1.839648E+06 -8.684440E+04 -7.979647E+04
        11  10  2.739186E+06  1.441668E+06  5.896893E+04  1.978564E+06 -8.003173E-09 -6.381226E-09
        11  11  2.800589E+06  1.519197E+06  1.174756E+05  2.024152E+06  4.173898E-09 -3.185290E-10
        11  12  2.948934E+06  1.572352E+06  2.139128E+05  2.038137E+06  9.719579E-09  5.752909E-09
        11  13  2.712006E+06  1.411004E+06  4.802990E+04  1.959806E+06  3.085915E-09  6.864180E-12
        11  14  2.676319E+06  1.437158E+06  7.953155E+04  1.965143E+06  6.031287E-09 -4.224498E-10
        11  15  2.727473E+06  1.438841E+06  1.485640E+05  1.938871E+06  6.761924E-10  1.875399E-10
        11  16  2.684828E+06  1.380342E+06  3.709084E+04  1.941050E+06  1.155563E-08  5.993317E-09
        11  17  2.552066E+06  1.355126E+06  4.158589E+04  1.906146E+06  2.872886E-09 -8.782450E-11
        11  18  2.506064E+06  1.305349E+06  8.320994E+04  1.839642E+06 -7.652258E-09 -6.082193E-09
        11  19  2.739186E+06  1.441669E+06  5.897051E+04  1.978564E+06  2.254376E+04  1.847025E+04
        11  20  2.800592E+06  1.519200E+06  1.174848E+05  2.024154E+06  5.186202E+04  4.752102E+04
        11  21  2.948943E+06  1.572360E+06  2.139360E+05  2.038142E+06  8.167298E+04  7.592473E+04
        11  22  2.712007E+06  1.411005E+06  4.803200E+04  1.959807E+06  2.609568E+04  2.112332E+04
        11  23  2.676323E+06  1.437161E+06  7.954181E+04  1.965145E+06  5.493452E+04  4.981743E+04
        11  24  2.727482E+06  1.438850E+06  1.485885E+05  1.938877E+06  8.425932E+04  7.786098E+04
        11  25  2.684829E+06  1.380342E+06  3.709354E+04  1.941051E+06  2.964736E+04  2.377610E+04
        11  26  2.552070E+06  1.355129E+06  4.159724E+04  1.906149E+06  5.800617E+04  5.211325E+04
        11  27  2.506074E+06  1.305357E+06  8.323592E+04  1.839648E+06  8.684440E+04  7.979647E+04
        12   1  2.937831E+06  1.689726E+06  2.756194E+05  2.157705E+06 -9.609266E+04 -9.351570E+04
        12   2  3.086705E+06  1.599404E+06  4.245370E+05  2.129616E+06 -2.342712E+05 -2.010007E+05
        12   3  3.622220E+06  1.894309E+06  8.367442E+05  1.878691E+06 -3.826317E+05 -2.949284E+05
        12   4  2.724165E+06  1.405043E+06  1.841622E+05  1.989584E+06 -1.029166E+05 -9.859515E+04
        12   5  2.635918E+06  1.399855E+06  3.043139E+05  1.961106E+06 -2.311832E+05 -1.987378E+05