
 stresses (elem, integ.pnt.,sxx,syy,szz,sxy,sxz,syz) for set ELALL and time  0.1000000E+01

         1   1 -2.337838E+06 -1.138082E+05 -1.382710E+05 -5.049712E+04 -9.477309E+04  7.736409E+00
         1   2 -2.321102E+06  4.069994E+03 -6.237138E+04 -1.688808E+04 -6.160679E+04  1.681864E+00
         1   3 -2.337704E+06  6.034574E+03 -3.710018E+04  1.672262E+04 -2.844021E+04 -7.688318E-01
         1   4 -2.337840E+06 -1.138130E+05 -1.382717E+05  1.296400E-10 -9.477309E+04  2.728346E-10
         1   5 -2.321102E+06  4.069456E+03 -6.237146E+04  5.419677E-09 -6.160679E+04  7.019043E-10
         1   6 -2.337704E+06  6.034046E+03 -3.710026E+04  7.754205E-10 -2.844021E+04  2.454925E-10
         1   7 -2.337838E+06 -1.138082E+05 -1.382710E+05  5.049712E+04 -9.477309E+04 -7.736409E+00
         1   8 -2.321102E+06  4.069994E+03 -6.237138E+04  1.688808E+04 -6.160679E+04 -1.681864E+00
         1   9 -2.337704E+06  6.034574E+03 -3.710018E+04 -1.672262E+04 -2.844021E+04  7.688318E-01
         1  10 -2.337847E+06 -1.138106E+05 -1.382880E+05 -5.049712E+04 -2.008044E-10  2.078612E-10
         1  11 -2.321106E+06  4.068970E+03 -6.237854E+04 -1.688808E+04 -8.800516E-10  5.791577E-10
         1  12 -2.337705E+06  6.034355E+03 -3.710171E+04  1.672262E+04 -4.544876E-10  4.740454E-10
         1  13 -2.337850E+06 -1.138154E+05 -1.382886E+05  2.291999E-09  1.176664E-09  5.383634E-11
         1  14 -2.321106E+06  4.068432E+03 -6.237861E+04  4.362611E-09 -2.164868E-09  2.327072E-10
         1  15 -2.337705E+06  6.033828E+03 -3.710178E+04 -1.099141E-09  5.609204E-10  3.052554E-10
         1  16 -2.337847E+06 -1.138106E+05 -1.382880E+05  5.049712E+04  1.292908E-09  4.543808E-12
         1  17 -2.321106E+06  4.068970E+03 -6.237854E+04  1.688808E+04  1.152037E-09 -2.154833E-10
         1  18 -2.337705E+06  6.034355E+03 -3.710171E+04 -1.672262E+04  2.303775E-10  9.986218E-11
         1  19 -2.337838E+06 -1.138082E+05 -1.382710E+05 -5.049712E+04  9.477309E+04 -7.736409E+00
         1  20 -2.321102E+06  4.069994E+03 -6.237138E+04 -1.688808E+04  6.160679E+04 -1.681864E+00
         1  21 -2.337704E+06  6.034574E+03 -3.710018E+04  1.672262E+04  2.844021E+04  7.688318E-01
         1  22 -2.337840E+06 -1.138130E+05 -1.382717E+05 -1.978101E-09  9.477309E+04 -1.419286E-10
         1  23 -2.321102E+06  4.069456E+03 -6.237146E+04  3.311800E-09  6.160679E+04 -1.928749E-10
         1  24 -2.337704E+06  6.034046E+03 -3.710026E+04  3.194292E-09  2.844021E+04  4.088248E-10
         1  25 -2.337838E+06 -1.138082E+05 -1.382710E+05  5.049712E+04  9.477309E+04  7.736409E+00
         1  26 -2.321102E+06  4.069994E+03 -6.237138E+04  1.688808E+04  6.160679E+04  1.681864E+00
         1  27 -2.337704E+06  6.034574E+03 -3.710018E+04 -1.672262E+04  2.844021E+04 -7.688318E-01
         2   1 -2.330979E+06 -7.273957E+03 -2.968307E+04 -2.527108E+03 -2.308475E+04  9.430580E-02
         2   2 -2.329488E+06  4.092165E+02 -1.588928E+04 -6.114271E+02 -1.508614E+04  1.491117E-02
         2   3 -2.330962E+06  4.217658E+02 -9.234960E+03  1.304245E+03 -7.087452E+03 -1.494307E-02
         2   4 -2.330979E+06 -7.273969E+03 -2.968307E+04  8.784186E-09 -2.308475E+04  3.501953E-10
         2   5 -2.329488E+06  4.092158E+02 -1.588928E+04  4.083574E-09 -1.508614E+04  8.947081E-10
         2   6 -2.330962E+06  4.217626E+02 -9.234960E+03  1.364163E-08 -7.087452E+03 -3.686194E-10
         2   7 -2.330979E+06 -7.273957E+03 -2.968307E+04  2.527108E+03 -2.308475E+04 -9.430580E-02
         2   8 -2.329488E+06  4.092165E+02 -1.588928E+04  6.114271E+02 -1.508614E+04 -1.491117E-02
         2   9 -2.330962E+06  4.217658E+02 -9.234960E+03 -1.304245E+03 -7.087452E+03  1.494307E-02
         2  10 -2.330980E+06 -7.274100E+03 -2.968407E+04 -2.527108E+03 -3.680131E-10  7.594919E-11
         2  11 -2.329488E+06  4.091551E+02 -1.588971E+04 -6.114271E+02 -7.822183E-10  1.567398E-11
         2  12 -2.330962E+06  4.217523E+02 -9.235054E+03  1.304245E+03  1.076967E-10  2.903131E-12
         2  13 -2.330980E+06 -7.274112E+03 -2.968408E+04 -6.289865E-09 -1.090548E-09  3.092011E-10
         2  14 -2.329488E+06  4.091544E+02 -1.588971E+04  4.047893E-09  1.650306E-10  1.163070E-10
         2  15 -2.330962E+06  4.217491E+02 -9.235055E+03  7.921418E-09  1.802035E-11 -2.304979E-10
         2  16 -2.330980E+06 -7.274100E+03 -2.968407E+04  2.527108E+03 -1.363640E-10  4.326168E-10
         2  17 -2.329488E+06  4.091551E+02 -1.588971E+04  6.114271E+02 -1.738609E-09  5.996955E-11
         2  18 -2.330962E+06  4.217523E+02 -9.235054E+03 -1.304245E+03 -1.664839E-09 -4.957206E-10
         2  19 -2.330979E+06 -7.273957E+03 -2.968307E+04 -2.527108E+03  2.308475E+04 -9.430580E-02
         2  20 -2.329488E+06  4.092165E+02 -1.588928E+04 -6.114271E+02  1.508614E+04 -1.491117E-02
         2  21 -2.330962E+06  4.217658E+02 -9.234960E+03  1.304245E+03  7.087452E+03  1.494307E-02
         2  22 -2.330979E+06 -7.273969E+03 -2.968307E+04  2.292692E-09  2.308475E+04  1.756387E-10
         2  23 -2.329488E+06  4.092158E+02 -1.588928E+04  3.993296E-09  1.508614E+04 -7.283814E-10
         2  24 -2.330962E+06  4.217626E+02 -9.234960E+03  1.404104E-08  7.087452E+03 -5.707916E-11
         2  25 -2.330979E+06 -7.273957E+03 -2.968307E+04  2.527108E+03  2.308475E+04  9.430580E-02
         2  26 -2.329488E+06  4.092165E+02 -1.588928E+04  6.114271E+02  1.508614E+04  1.491117E-02
         2  27 -2.330962E+06  4.217658E+02 -9.234960E+03 -1.304245E+03  7.087452E+03 -1.494307E-02
         3   1 -2.330391E+06 -4.211299E+02 -7.124603E+03  3.107247E+01 -5.650782E+03 -2.838409E-04
         3   2 -2.330193E+06  6.324693E+01 -4.081375E+03  7.974763E+01 -3.626260E+03 -4.674841E-04
         3   3 -2.330388E+06  3.564346E+01 -2.487860E+03  1.284220E+02 -1.601762E+03 -3.325276E-04
         3   4 -2.330391E+06 -4.211299E+02 -7.124603E+03  8.509046E-09 -5.650782E+03 -7.739721E-10
         3   5 -2.330193E+06  6.324692E+01 -4.081375E+03 -4.816217E-09 -3.626260E+03 -6.210206E-11
         3   6 -2.330388E+06  3.564343E+01 -2.487860E+03  4.228874E-09 -1.601762E+03  1.116572E-10
         3   7 -2.330391E+06 -4.211299E+02 -7.124603E+03 -3.107247E+01 -5.650782E+03  2.838392E-04
         3   8 -2.330193E+06  6.324693E+01 -4.081375E+03 -7.974763E+01 -3.626260E+03  4.674837E-04
         3   9 -2.330388E+06  3.564346E+01 -2.487860E+03 -1.284220E+02 -1.601762E+03  3.325277E-04
         3  10 -2.330391E+06 -4.211385E+02 -7.124663E+03  3.107247E+01 -1.827700E-09 -1.148733E-10
         3  11 -2.330193E+06  6.324338E+01 -4.081400E+03  7.974763E+01 -2.778822E-09 -2.853038E-10
         3  12 -2.330388E+06  3.564277E+01 -2.487865E+03  1.284220E+02  5.961410E-10 -9.485411E-10
         3  13 -2.330391E+06 -4.211385E+02 -7.124663E+03  8.540535E-09 -8.172445E-11 -1.999928E-10
         3  14 -2.330193E+06  6.324337E+01 -4.081400E+03  1.591279E-09 -2.151918E-09 -2.103326E-10
         3  15 -2.330388E+06  3.564274E+01 -2.487865E+03  1.616970E-08 -2.973019E-26 -7.536896E-10
         3  16 -2.330391E+06 -4.211385E+02 -7.124663E+03 -3.107247E+01 -1.311677E-09 -5.493080E-10
         3  17 -2.330193E+06  6.324338E+01 -4.081400E+03 -7.974763E+01  3.250997E-09 -1.772049E-10
         3  18 -2.330388E+06  3.564277E+01 -2.487865E+03 -1.284220E+02  5.533886E-11 -3.661947E-10
         3  19 -2.330391E+06 -4.211299E+02 -7.124603E+03  3.107247E+01  5.650782E+03  2.838414E-04
         3  20 -2.330193E+06  6.324693E+01 -4.081375E+03  7.974763E+01  3.626260E+03  4.674841E-04
         3  21 -2.330388E+06  3.564346E+01 -2.487860E+03  1.284220E+02  1.601762E+03  3.325255E-04
         3  22 -2.330391E+06 -4.211299E+02 -7.124603E+03  1.073656E-08  5.650782E+03  3.802647E-10
         3  23 -2.330193E+06  6.324692E+01 -4.081375E+03  1.015700E-08  3.626260E+03 -2.415418E-10
         3  24 -2.330388E+06  3.564343E+01 -2.487860E+03  8.238793E-09  1.601762E+03 -1.659640E-09
         3  25 -2.330391E+06 -4.211299E+02 -7.124603E+03 -3.107247E+01  5.650782E+03 -2.838408E-04
         3  26 -2.330193E+06  6.324693E+01 -4.081375E+03 -7.974763E+01  3.626260E+03 -4.674845E-04
         3  27 -2.330388E+06  3.564346E+01 -2.487860E+03 -1.284220E+02  1.601762E+03 -3.325290E-04
         4   1 -2.330324E+06 -1.208822E+01 -2.008592E+03  4.285255E+01 -1.197290E+03 -8.294002E-05
         4   2 -2.330271E+06  1.863336E+01 -1.468976E+03  1.659911E+01 -4.715917E+02 -1.265355E-05
         4   3 -2.330324E+06  9.047170E+00 -1.413234E+03 -9.654710E+00  2.541175E+02 -3.966073E-06
         4   4 -2.330324E+06 -1.208823E+01 -2.008592E+03  2.032075E-08 -1.197290E+03  3.396057E-10
         4   5 -2.330271E+06  1.863336E+01 -1.468976E+03 -7.368367E-09 -4.715917E+02  7.162478E-10
         4   6 -2.330324E+06  9.047170E+00 -1.413234E+03 -2.836000E-08  2.541175E+02  2.806614E-10
         4   7 -2.330324E+06 -1.208822E+01 -2.008592E+03 -4.285255E+01 -1.197290E+03  8.294098E-05
         4   8 -2.330271E+06  1.863336E+01 -1.468976E+03 -1.659911E+01 -4.715917E+02  1.265468E-05
         4   9 -2.330324E+06  9.047170E+00 -1.413234E+03  9.654710E+00  2.541175E+02  3.966368E-06
         4  10 -2.330324E+06 -1.208861E+01 -2.008594E+03  4.285255E+01 -2.562802E-09 -6.033615E-10
         4  11 -2.330271E+06  1.863330E+01 -1.468976E+03  1.659911E+01  4.555993E-09  8.487245E-10
         4  12 -2.330324E+06  9.047152E+00 -1.413234E+03 -9.654710E+00  6.475652E-09 -2.863816E-10
         4  13 -2.330324E+06 -1.208861E+01 -2.008594E+03  9.993386E-09  9.706467E-10 -3.885845E-10
         4  14 -2.330271E+06  1.863330E+01 -1.468976E+03 -3.186909E-09  2.223644E-09  8.507723E-10
         4  15 -2.330324E+06  9.047152E+00 -1.413234E+03 -3.447249E-09  2.193828E-10  1.353729E-10
         4  16 -2.330324E+06 -1.208861E+01 -2.008594E+03 -4.285255E+01  1.793537E-09 -2.705075E-10
         4  17 -2.330271E+06  1.863330E+01 -1.468976E+03 -1.659911E+01 -3.205338E-09  8.520782E-10
         4  18 -2.330324E+06  9.047152E+00 -1.413234E+03  9.654710E+00 -8.286279E-09  6.745525E-10
         4  19 -2.330324E+06 -1.208822E+01 -2.008592E+03  4.285255E+01  1.197290E+03  8.293938E-05
         4  20 -2.330271E+06  1.863336E+01 -1.468976E+03  1.659911E+01  4.715917E+02  1.265559E-05
         4  21 -2.330324E+06  9.047170E+00 -1.413234E+03 -9.654710E+00 -2.541175E+02  3.965688E-06
         4  22 -2.330324E+06 -1.208823E+01 -2.008592E+03 -2.532095E-09  1.197290E+03 -1.082633E-09
         4  23 -2.330271E+06  1.863336E+01 -1.468976E+03  9.861502E-10  4.715917E+02  8.498300E-10
         4  24 -2.330324E+06  9.047170E+00 -1.413234E+03  3.489195E-08 -2.541175E+02 -8.780833E-11
         4  25 -2.330324E+06 -1.208822E+01 -2.008592E+03 -4.285255E+01  1.197290E+03 -8.294130E-05
         4  26 -2.330271E+06  1.863336E+01 -1.468976E+03 -1.659911E+01  4.715917E+02 -1.265399E-05
         4  27 -2.330324E+06  9.047170E+00 -1.413234E+03  9.654711E+00 -2.541175E+02 -3.965413E-06
         5   1 -2.330336E+06  9.925842E+00 -1.547493E+03 -2.685153E+01  5.218455E+02 -2.265191E-05
         5   2 -2.330257E+06  2.818010E+01 -2.194788E+03 -6.246414E+01  1.606366E+03 -1.622051E-04
         5   3 -2.330337E+06 -2.567218E+01 -3.568166E+03 -9.807678E+01  2.690886E+03 -4.266304E-04
         5   4 -2.330336E+06  9.925841E+00 -1.547493E+03  3.069064E-08  5.218455E+02  2.068212E-10
         5   5 -2.330257E+06  2.818009E+01 -2.194788E+03 -3.062650E-09  1.606366E+03  1.760978E-10
         5   6 -2.330337E+06 -2.567220E+01 -3.568166E+03 -9.916877E-09  2.690886E+03 -6.533516E-10
         5   7 -2.330336E+06  9.925842E+00 -1.547493E+03  2.685153E+01  5.218455E+02  2.265237E-05
         5   8 -2.330257E+06  2.818010E+01 -2.194788E+03  6.246414E+01  1.606366E+03  1.622051E-04
         5   9 -2.330337E+06 -2.567218E+01 -3.568166E+03  9.807678E+01  2.690886E+03  4.266295E-04
         5  10 -2.330336E+06  9.925769E+00 -1.547494E+03 -2.685153E+01 -7.988833E-09 -6.990545E-10
         5  11 -2.330257E+06  2.817940E+01 -2.194792E+03 -6.246414E+01 -5.226883E-09 -2.774523E-10
         5  12 -2.330337E+06 -2.567414E+01 -3.568180E+03 -9.807678E+01  4.790658E-10 -1.594137E-10
         5  13 -2.330336E+06  9.925767E+00 -1.547494E+03  3.144919E-09  2.442072E-10 -4.162087E-10
         5  14 -2.330257E+06  2.817939E+01 -2.194792E+03 -1.257564E-08 -4.198534E-09 -3.594954E-10
         5  15 -2.330337E+06 -2.567415E+01 -3.568180E+03  8.858136E-09 -2.189739E-09 -2.524211E-10
         5  16 -2.330336E+06  9.925769E+00 -1.547494E+03  2.685153E+01  5.708675E-09  1.039761E-10
         5  17 -2.330257E+06  2.817940E+01 -2.194792E+03  6.246414E+01  1.218358E-09 -4.335826E-10
         5  18 -2.330337E+06 -2.567414E+01 -3.568180E+03  9.807678E+01 -2.387189E-09 -2.479091E-10
         5  19 -2.330336E+06  9.925842E+00 -1.547493E+03 -2.685153E+01 -5.218455E+02  2.265058E-05
         5  20 -2.330257E+06  2.818010E+01 -2.194788E+03 -6.246414E+01 -1.606366E+03  1.622047E-04
         5  21 -2.330337E+06 -2.567218E+01 -3.568166E+03 -9.807678E+01 -2.690886E+03  4.266300E-04
         5  22 -2.330336E+06  9.925841E+00 -1.547493E+03 -1.583929E-08 -5.218455E+02 -1.002811E-09
         5  23 -2.330257E+06  2.818009E+01 -2.194788E+03 -1.347042E-08 -1.606366E+03 -8.102294E-10
         5  24 -2.330337E+06 -2.567220E+01 -3.568166E+03  5.037908E-09 -2.690886E+03  1.165335E-10
         5  25 -2.330336E+06  9.925842E+00 -1.547493E+03  2.685153E+01 -5.218455E+02 -2.265231E-05
         5  26 -2.330257E+06  2.818010E+01 -2.194788E+03  6.246414E+01 -1.606366E+03 -1.622065E-04
         5  27 -2.330337E+06 -2.567218E+01 -3.568166E+03  9.807678E+01 -2.690886E+03 -4.266299E-04
         6   1 -2.330472E+06  6.744514E+01 -4.616892E+03 -2.663070E+02  3.426655E+03 -1.475173E-03
         6   2 -2.330092E+06  1.231365E+02 -7.905761E+03 -1.654826E+02  7.348728E+03 -1.965867E-03
         6   3 -2.330478E+06 -8.344278E+02 -1.400850E+04 -6.465945E+01  1.127072E+04 -1.178076E-03
         6   4 -2.330472E+06  6.744500E+01 -4.616892E+03  1.801462E-09  3.426655E+03 -6.123489E-10
         6   5 -2.330092E+06  1.231364E+02 -7.905761E+03 -9.774826E-09  7.348728E+03  3.492240E-10
         6   6 -2.330478E+06 -8.344278E+02 -1.400850E+04  7.166763E-10  1.127072E+04 -2.010126E-10
         6   7 -2.330472E+06  6.744514E+01 -4.616892E+03  2.663070E+02  3.426655E+03  1.475173E-03
         6   8 -2.330092E+06  1.231365E+02 -7.905761E+03  1.654826E+02  7.348728E+03  1.965868E-03
         6   9 -2.330478E+06 -8.344278E+02 -1.400850E+04  6.465945E+01  1.127072E+04  1.178076E-03
         6  10 -2.330472E+06  6.744197E+01 -4.616914E+03 -2.663070E+02 -3.424657E-09  5.382399E-10
         6  11 -2.330092E+06  1.231219E+02 -7.905862E+03 -1.654826E+02 -2.669331E-09  1.067434E-09
         6  12 -2.330479E+06 -8.344620E+02 -1.400874E+04 -6.465945E+01  1.071944E-09 -2.204530E-10
         6  13 -2.330472E+06  6.744184E+01 -4.616914E+03  4.224230E-09 -1.286458E-09  2.750191E-10
         6  14 -2.330092E+06  1.231219E+02 -7.905862E+03  9.785325E-10 -1.286453E-09  9.806321E-10
         6  15 -2.330479E+06 -8.344620E+02 -1.400874E+04  9.187379E-10  1.523364E-09  7.453382E-11
         6  16 -2.330472E+06  6.744197E+01 -4.616914E+03  2.663070E+02  1.276665E-09  4.867609E-11
         6  17 -2.330092E+06  1.231219E+02 -7.905862E+03  1.654826E+02  4.072767E-09  8.271280E-10
         6  18 -2.330479E+06 -8.344620E+02 -1.400874E+04  6.465945E+01  4.739727E-10  2.380348E-10
         6  19 -2.330472E+06  6.744514E+01 -4.616892E+03 -2.663070E+02 -3.426655E+03  1.475175E-03
         6  20 -2.330092E+06  1.231365E+02 -7.905761E+03 -1.654826E+02 -7.348728E+03  1.965870E-03
         6  21 -2.330478E+06 -8.344278E+02 -1.400850E+04 -6.465945E+01 -1.127072E+04  1.178077E-03
         6  22 -2.330472E+06  6.744500E+01 -4.616892E+03  6.670088E-09 -3.426655E+03  1.135937E-09
         6  23 -2.330092E+06  1.231364E+02 -7.905761E+03  9.575753E-09 -7.348728E+03  1.552958E-09
         6  24 -2.330478E+06 -8.344278E+02 -1.400850E+04  1.329471E-08 -1.127072E+04  3.119548E-10
         6  25 -2.330472E+06  6.744514E+01 -4.616892E+03  2.663070E+02 -3.426655E+03 -1.475173E-03
         6  26 -2.330092E+06  1.231365E+02 -7.905761E+03  1.654826E+02 -7.348728E+03 -1.965867E-03
         6  27 -2.330478E+06 -8.344278E+02 -1.400850E+04  6.465945E+01 -1.127072E+04 -1.178076E-03
         7   1 -2.331610E+06  8.344951E+02 -1.821276E+04 -2.586098E+03  1.410001E+04 -5.894609E-02
         7   2 -2.328693E+06  8.099320E+02 -3.142399E+04  1.209115E+03  2.991967E+04  5.848069E-02
         7   3 -2.331644E+06 -1.440642E+04 -5.875987E+04  5.004417E+03  4.573927E+04  3.700255E-01
         7   4 -2.331610E+06  8.344825E+02 -1.821276E+04  4.108774E-09  1.410001E+04 -2.376772E-10
         7   5 -2.328693E+06  8.099292E+02 -3.142399E+04 -1.963069E-09  2.991967E+04  2.049036E-10
         7   6 -2.331644E+06 -1.440647E+04 -5.875988E+04  1.159943E-08  4.573927E+04 -7.721028E-10
         7   7 -2.331610E+06  8.344951E+02 -1.821276E+04  2.586098E+03  1.410001E+04  5.894609E-02
         7   8 -2.328693E+06  8.099320E+02 -3.142399E+04 -1.209115E+03  2.991967E+04 -5.848069E-02
         7   9 -2.331644E+06 -1.440642E+04 -5.875987E+04 -5.004417E+03  4.573927E+04 -3.700255E-01
         7  10 -2.331611E+06  8.344415E+02 -1.821313E+04 -2.586098E+03 -1.224311E-09 -6.995933E-10
         7  11 -2.328694E+06  8.096905E+02 -3.142568E+04  1.209115E+03 -2.356929E-09 -3.543813E-10
         7  12 -2.331647E+06 -1.440698E+04 -5.876382E+04  5.004417E+03  3.094755E-10 -6.352706E-10
         7  13 -2.331611E+06  8.344289E+02 -1.821313E+04  4.140270E-09  1.285899E-09 -4.064632E-10
         7  14 -2.328694E+06  8.096878E+02 -3.142568E+04  2.313541E-09  1.508927E-09 -2.877775E-10
         7  15 -2.331647E+06 -1.440703E+04 -5.876382E+04  4.790638E-09 -2.050664E-10 -8.340996E-10
         7  16 -2.331611E+06  8.344415E+02 -1.821313E+04  2.586098E+03  1.291496E-09 -1.102758E-10
         7  17 -2.328694E+06  8.096905E+02 -3.142568E+04 -1.209115E+03  9.970693E-10 -1.325257E-10
         7  18 -2.331647E+06 -1.440698E+04 -5.876382E+04 -5.004417E+03  5.302853E-10 -9.604991E-10
         7  19 -2.331610E+06  8.344951E+02 -1.821276E+04 -2.586098E+03 -1.410001E+04  5.894609E-02
         7  20 -2.328693E+06  8.099320E+02 -3.142399E+04  1.209115E+03 -2.991967E+04 -5.848069E-02
         7  21 -2.331644E+06 -1.440642E+04 -5.875987E+04  5.004417E+03 -4.573927E+04 -3.700255E-01
         7  22 -2.331610E+06  8.344825E+02 -1.821276E+04  1.708761E-08 -1.410001E+04 -4.914564E-10
         7  23 -2.328693E+06  8.099292E+02 -3.142399E+04  6.573381E-09 -2.991967E+04 -8.601635E-10
         7  24 -2.331644E+06 -1.440647E+04 -5.875988E+04  1.138324E-08 -4.573927E+04 -8.654867E-10
         7  25 -2.331610E+06  8.344951E+02 -1.821276E+04  2.586098E+03 -1.410001E+04 -5.894609E-02
         7  26 -2.328693E+06  8.099320E+02 -3.142399E+04 -1.209115E+03 -2.991967E+04  5.848069E-02
         7  27 -2.331644E+06 -1.440642E+04 -5.875987E+04 -5.004417E+03 -4.573927E+04  3.700255E-01
         8   1 -2.344962E+06  1.195260E+04 -7.345362E+04 -3.311989E+04  5.634049E+04 -3.016530E+00
         8   2 -2.312081E+06  8.061427E+03 -1.235001E+05  3.344741E+04  1.220241E+05  6.597549E+00
         8   3 -2.345217E+06 -2.253839E+05 -2.738034E+05  1.000102E+05  1.877085E+05  3.034686E+01
         8   4 -2.344963E+06  1.195054E+04 -7.345392E+04  1.386082E-08  5.634049E+04 -1.069757E-09
         8   5 -2.312083E+06  8.059317E+03 -1.235004E+05  8.874774E-09  1.220241E+05 -4.203484E-10
         8   6 -2.345228E+06 -2.254027E+05 -2.738061E+05  5.230538E-09  1.877085E+05 -1.372958E-10
         8   7 -2.344962E+06  1.195260E+04 -7.345362E+04  3.311989E+04  5.634049E+04  3.016530E+00
         8   8 -2.312081E+06  8.061427E+03 -1.235001E+05 -3.344741E+04  1.220241E+05 -6.597549E+00
         8   9 -2.345217E+06 -2.253839E+05 -2.738034E+05 -1.000102E+05  1.877085E+05 -3.034686E+01
         8  10 -2.344965E+06  1.195175E+04 -7.345961E+04 -3.311989E+04  1.310868E-09 -1.128227E-09
         8  11 -2.312097E+06  8.057411E+03 -1.235282E+05  3.344741E+04  1.720795E-09 -8.078409E-10
         8  12 -2.345255E+06 -2.253934E+05 -2.738698E+05  1.000102E+05 -2.161638E-10 -2.791836E-10
         8  13 -2.344966E+06  1.194968E+04 -7.345990E+04  9.594670E-09 -1.109478E-09 -9.640174E-10
         8  14 -2.312099E+06  8.055301E+03 -1.235285E+05 -6.118226E-09  1.034490E-10 -6.148350E-10
         8  15 -2.345266E+06 -2.254122E+05 -2.738725E+05  6.657289E-09 -3.621099E-10 -1.368403E-10
         8  16 -2.344965E+06  1.195175E+04 -7.345961E+04  3.311989E+04  8.766848E-11 -8.667999E-10
         8  17 -2.312097E+06  8.057411E+03 -1.235282E+05 -3.344741E+04 -3.636541E-09 -5.379913E-10
         8  18 -2.345255E+06 -2.253934E+05 -2.738698E+05 -1.000102E+05  3.325897E-10 -2.084356E-10
         8  19 -2.344962E+06  1.195260E+04 -7.345362E+04 -3.311989E+04 -5.634049E+04  3.016530E+00
         8  20 -2.312081E+06  8.061427E+03 -1.235001E+05  3.344741E+04 -1.220241E+05 -6.597549E+00
         8  21 -2.345217E+06 -2.253839E+05 -2.738034E+05  1.000102E+05 -1.877085E+05 -3.034686E+01
         8  22 -2.344963E+06  1.195054E+04 -7.345392E+04  7.495203E-09 -5.634049E+04 -8.947568E-10
         8  23 -2.312083E+06  8.059317E+03 -1.235004E+05 -8.213521E-09 -1.220241E+05 -7.721241E-10
         8  24 -2.345228E+06 -2.254027E+05 -2.738061E+05 -2.662149E-09 -1.877085E+05 -1.637230E-10
         8  25 -2.344962E+06  1.195260E+04 -7.345362E+04  3.311989E+04 -5.634049E+04 -3.016530E+00
         8  26 -2.312081E+06  8.061427E+03 -1.235001E+05 -3.344741E+04 -1.220241E+05  6.597549E+00
         8  27 -2.345217E+06 -2.253839E+05 -2.738034E+05 -1.000102E+05 -1.877085E+05  3.034686E+01
         9   1  1.833873E+06  6.021976E+06  1.787651E+06 -1.119061E+06  8.309828E+04  5.814862E+05
         9   2  1.369339E+06  4.944838E+06  1.217820E+06 -9.316489E+05  2.673102E+05  2.636305E+05
         9   3  1.080972E+06  3.956532E+06  8.983196E+05 -9.816595E+05  2.877903E+05 -5.363446E+04
         9   4  2.029877E+05 -5.913838E+05  2.264087E+05 -9.838065E+05  8.410544E+04  1.572426E+05
         9   5  3.894308E+04 -6.111785E+05  1.089225E+05 -8.653885E+05  2.679998E+05  1.015531E+05
         9   6  6.663227E+03 -5.877876E+05  6.120434E+04 -9.843661E+05  2.875624E+05  4.587060E+04
         9   7 -1.430865E+06 -7.164341E+06 -1.337181E+06 -8.499413E+05  8.493739E+04 -2.625459E+05
         9   8 -1.293316E+06 -6.137791E+06 -1.001430E+06 -7.996902E+05  2.686595E+05 -5.911441E+04
         9   9 -1.068816E+06 -5.112127E+06 -7.767300E+05 -9.870185E+05  2.873326E+05  1.446689E+05
         9  10  1.833776E+06  6.021614E+06  1.787008E+06 -1.119100E+06  5.688249E-10  2.334454E-09
         9  11  1.369244E+06  4.944745E+06  1.217556E+06 -9.317055E+05  3.277808E-09 -1.409518E-09
         9  12  1.080883E+06  3.956506E+06  8.981588E+05 -9.816471E+05  3.072183E-10 -5.047261E-09
         9  13  2.029735E+05 -5.914123E+05  2.263488E+05 -9.838171E+05 -2.718716E-09  3.598087E-11
         9  14  3.886316E+04 -6.112089E+05  1.087680E+05 -8.654104E+05  5.085413E-09  4.453728E-11
         9  15  6.573862E+03 -5.878121E+05  6.104494E+04 -9.843767E+05 -9.408996E-10  2.075319E-11
         9  16 -1.430891E+06 -7.164418E+06 -1.337325E+06 -8.499233E+05 -3.746988E-11 -2.390965E-09
         9  17 -1.293394E+06 -6.137814E+06 -1.001572E+06 -7.996774E+05  7.566482E-10  1.303797E-09
         9  18 -1.068910E+06 -5.112172E+06 -7.769250E+05 -9.870521E+05  3.330703E-10  5.354136E-09
         9  19  1.833873E+06  6.021976E+06  1.787651E+06 -1.119061E+06 -8.309828E+04 -5.814862E+05
         9  20  1.369339E+06  4.944838E+06  1.217820E+06 -9.316489E+05 -2.673102E+05 -2.636305E+05
         9  21  1.080972E+06  3.956532E+06  8.983196E+05 -9.816595E+05 -2.877903E+05  5.363446E+04
         9  22  2.029877E+05 -5.913838E+05  2.264087E+05 -9.838065E+05 -8.410544E+04 -1.572426E+05
         9  23  3.894308E+04 -6.111785E+05  1.089225E+05 -8.653885E+05 -2.679998E+05 -1.015531E+05
         9  24  6.663227E+03 -5.877876E+05  6.120434E+04 -9.843661E+05 -2.875624E+05 -4.587060E+04
         9  25 -1.430865E+06 -7.164341E+06 -1.337181E+06 -8.499413E+05 -8.493739E+04  2.625459E+05
         9  26 -1.293316E+06 -6.137791E+06 -1.001430E+06 -7.996902E+05 -2.686595E+05  5.911441E+04
         9  27 -1.068816E+06 -5.112127E+06 -7.767300E+05 -9.870185E+05 -2.873326E+05 -1.446689E+05
        10   1  9.236662E+05  3.257812E+06  7.522492E+05 -1.001376E+06  2.489347E+05 -3.929856E+04
        10   2  6.707559E+05  2.222534E+06  5.298156E+05 -8.727255E+05  1.951772E+05 -7.019645E+04
        10   3  4.294346E+05  1.194180E+06  3.300053E+05 -9.918212E+05  1.304743E+05 -1.012179E+05
        10   4  1.312791E+04 -5.956206E+05  4.701974E+04 -9.866183E+05  2.487145E+05  3.757463E+04
        10   5  6.947082E+03 -5.961261E+05  2.678003E+04 -8.627294E+05  1.947801E+05  2.409916E+04
        10   6  9.417814E+03 -5.937249E+05  1.715449E+04 -9.866506E+05  1.298736E+05  1.045098E+04
        10   7 -8.982476E+05 -4.434662E+06 -6.587924E+05 -9.719285E+05  2.484970E+05  1.139848E+05
        10   8 -6.572967E+05 -3.407030E+06 -4.765238E+05 -8.527657E+05  1.943848E+05  1.179798E+05
        10   9 -4.107661E+05 -2.378475E+06 -2.957640E+05 -9.814888E+05  1.292736E+05  1.218083E+05
        10  10  9.235993E+05  3.257794E+06  7.521300E+05 -1.001368E+06 -1.485328E-09  1.239098E-09
        10  11  6.707137E+05  2.222519E+06  5.297349E+05 -8.727145E+05  7.235872E-10 -8.424674E-10
        10  12  4.294136E+05  1.194164E+06  3.299542E+05 -9.918106E+05 -7.743108E-10 -2.804123E-09
        10  13  1.306110E+04 -5.956388E+05  4.690080E+04 -9.866258E+05 -6.048636E-09  1.810468E-10
        10  14  6.906188E+03 -5.961369E+05  2.670763E+04 -8.627332E+05  4.159205E-10  9.713336E-11
        10  15  9.399674E+03 -5.937295E+05  1.712259E+04 -9.866517E+05  3.084566E-10 -6.607505E-11
        10  16 -8.983175E+05 -4.434692E+06 -6.589332E+05 -9.719514E+05 -9.516237E-10 -9.593336E-10
        10  17 -6.573411E+05 -3.407055E+06 -4.766213E+05 -8.527842E+05 -9.479240E-10  9.221250E-10
        10  18 -4.107881E+05 -2.378496E+06 -2.958235E+05 -9.815015E+05 -1.751316E-09  2.598061E-09
        10  19  9.236662E+05  3.257812E+06  7.522492E+05 -1.001376E+06 -2.489347E+05  3.929856E+04
        10  20  6.707559E+05  2.222534E+06  5.298156E+05 -8.727255E+05 -1.951772E+05  7.019645E+04
        10  21  4.294346E+05  1.194180E+06  3.300053E+05 -9.918212E+05 -1.304743E+05  1.012179E+05
        10  22  1.312791E+04 -5.956206E+05  4.701974E+04 -9.866183E+05 -2.487145E+05 -3.757463E+04
        10  23  6.947082E+03 -5.961261E+05  2.678003E+04 -8.627294E+05 -1.947801E+05 -2.409916E+04
        10  24  9.417814E+03 -5.937249E+05  1.715449E+04 -9.866506E+05 -1.298736E+05 -1.045098E+04
        10  25 -8.982476E+05 -4.434662E+06 -6.587924E+05 -9.719285E+05 -2.484970E+05 -1.139848E+05
        10  26 -6.572967E+05 -3.407030E+06 -4.765238E+05 -8.527657E+05 -1.943848E+05 -1.179798E+05
        10  27 -4.107661E+05 -2.378475E+06 -2.957640E+05 -9.814888E+05 -1.292736E+05 -1.218083E+05
        11   1  2.680248E+05  5.102818E+05  2.008704E+05 -9.909597E+05  8.735576E+04 -1.065506E+05
        11   2  2.421845E+04 -5.172908E+05  5.746380E+02 -8.590832E+05  3.001733E+04 -6.557817E+04
        11   3 -2.171304E+05 -1.550942E+06 -2.265120E+05 -9.740314E+05  2.488285E+03 -2.458259E+04
        11   4  9.878480E+03 -5.937425E+05  1.428469E+04 -9.864301E+05  8.670319E+04  7.524152E+03
        11   5  1.113246E+04 -5.942582E+05  1.188730E+04 -8.629953E+05  2.963366E+04  1.223124E+03
        11   6  2.310320E+04 -5.936837E+05  1.553465E+04 -9.863664E+05  2.373211E+03 -4.987506E+03
        11   7 -2.483251E+05 -1.696538E+06 -1.722912E+05 -9.819063E+05  8.605151E+04  1.214027E+05
        11   8 -1.950851E+03 -6.712082E+05  2.321844E+04 -8.669069E+05  2.924910E+04  6.801745E+04
        11   9  2.632674E+05  3.644055E+05  2.575124E+05 -9.987186E+05  2.257463E+03  1.463789E+04
        11  10  2.680136E+05  5.102675E+05  2.008348E+05 -9.909523E+05 -5.768266E-10 -2.760969E-08
        11  11  2.421633E+04 -5.172957E+05  5.648701E+02 -8.590816E+05  4.779222E-11 -4.614771E-10
        11  12 -2.171306E+05 -1.550943E+06 -2.265131E+05 -9.740314E+05  1.716162E-10  2.623451E-08
        11  13  9.870393E+03 -5.937446E+05  1.427045E+04 -9.864306E+05 -9.018869E-10  7.927078E-11
        11  14  1.113152E+04 -5.942585E+05  1.188565E+04 -8.629953E+05  3.512610E-09 -1.572076E-10
        11  15  2.310318E+04 -5.936837E+05  1.553459E+04 -9.863664E+05 -1.809878E-09 -9.830506E-12
        11  16 -2.483371E+05 -1.696556E+06 -1.723329E+05 -9.819147E+05 -1.229428E-09  2.748892E-08
        11  17 -1.953018E+03 -6.712134E+05  2.320811E+04 -8.669085E+05  2.001016E-09  3.218134E-10
        11  18  2.632673E+05  3.644052E+05  2.575120E+05 -9.987186E+05  4.905677E-10 -2.619495E-08
        11  19  2.680248E+05  5.102818E+05  2.008704E+05 -9.909597E+05 -8.735576E+04  1.065506E+05
        11  20  2.421845E+04 -5.172908E+05  5.746380E+02 -8.590832E+05 -3.001733E+04  6.557817E+04
        11  21 -2.171304E+05 -1.550942E+06 -2.265120E+05 -9.740314E+05 -2.488285E+03  2.458259E+04
        11  22  9.878480E+03 -5.937425E+05  1.428469E+04 -9.864301E+05 -8.670319E+04 -7.524152E+03
        11  23  1.113246E+04 -5.942582E+05  1.188730E+04 -8.629953E+05 -2.963366E+04 -1.223124E+03
        11  24  2.310320E+04 -5.936837E+05  1.553465E+04 -9.863664E+05 -2.373211E+03  4.987506E+03
        11  25 -2.483251E+05 -1.696538E+06 -1.722912E+05 -9.819063E+05 -8.605151E+04 -1.214027E+05
        11  26 -1.950851E+03 -6.712082E+05  2.321844E+04 -8.669069E+05 -2.924910E+04 -6.801745E+04
        11  27  2.632674E+05  3.644055E+05  2.575124E+05 -9.987186E+05 -2.257463E+03 -1.463789E+04
        12   1 -3.107142E+06 -8.425011E+05 -4.046858E+05 -1.187968E+06 -2.382626E+05 -8.742824E+04
        12   2 -3.054721E+06 -4.801474E+05 -1.832765E+05 -1.196101E+06 -1.511829E+05 -5.149918E+04
        12   3 -3.111237E+06 -4.223933E+05 -1.076429E+05 -1.143797E+06 -6.255357E+04 -1.968483E+04
        12   4 -3.054501E+06 -7.065914E+05 -3.677317E+05 -1.054149E+06 -2.344866E+05 -8.606877E+04
        12   5 -2.980437E+06 -4.145657E+05 -1.576806E+05 -1.136765E+06 -1.505529E+05 -5.127461E+04