
 stresses (elem, integ.pnt.,sxx,syy,szz,sxy,sxz,syz) for set ELALL and time  0.2500000E+00

         1   1  6.010119E+03  5.113109E+04  6.698387E+04  8.596883E+02  4.570958E+04  6.329547E-02
         1   2 -4.294822E+03 -1.237471E+04  2.853156E+04  2.153964E+02  3.009122E+04  1.044015E-02
         1   3  6.009384E+03 -1.580642E+03  1.882367E+04 -4.288965E+02  1.447255E+04 -9.998136E-03
         1   4  6.010118E+03  5.113109E+04  6.698387E+04 -1.515696E-07  4.570958E+04 -1.081116E-10
         1   5 -4.294822E+03 -1.237471E+04  2.853156E+04  2.899018E-08  3.009122E+04  2.458560E-10
         1   6  6.009384E+03 -1.580642E+03  1.882367E+04  3.991045E-07  1.447255E+04 -2.602037E-10
         1   7  6.010119E+03  5.113109E+04  6.698387E+04 -8.596883E+02  4.570958E+04 -6.329547E-02
         1   8 -4.294822E+03 -1.237471E+04  2.853156E+04 -2.153964E+02  3.009122E+04 -1.044015E-02
         1   9  6.009384E+03 -1.580642E+03  1.882367E+04  4.288965E+02  1.447255E+04  9.998136E-03
         1  10  6.007875E+03  5.113053E+04  6.697994E+04  8.596883E+02 -5.461649E-10 -5.444469E-10
         1  11 -4.295794E+03 -1.237495E+04  2.852986E+04  2.153964E+02  2.700941E-10 -3.718295E-11
         1  12  6.009159E+03 -1.580698E+03  1.882328E+04 -4.288965E+02 -9.942332E-10 -2.872527E-10
         1  13  6.007874E+03  5.113052E+04  6.697994E+04 -2.894246E-07 -8.413955E-12  9.171153E-11
         1  14 -4.295794E+03 -1.237495E+04  2.852986E+04  3.046892E-07  2.149755E-09  9.353877E-11
         1  15  6.009159E+03 -1.580698E+03  1.882328E+04  2.001208E-08  4.165680E-10 -5.599026E-12
         1  16  6.007875E+03  5.113053E+04  6.697994E+04 -8.596883E+02  1.318490E-12 -1.260169E-11
         1  17 -4.295794E+03 -1.237495E+04  2.852986E+04 -2.153964E+02 -8.062585E-13 -4.499346E-11
         1  18  6.009159E+03 -1.580698E+03  1.882328E+04  4.288965E+02  6.555507E-10  1.414328E-10
         1  19  6.010119E+03  5.113109E+04  6.698387E+04  8.596883E+02 -4.570958E+04 -6.329547E-02
         1  20 -4.294822E+03 -1.237471E+04  2.853156E+04  2.153964E+02 -3.009122E+04 -1.044014E-02
         1  21  6.009384E+03 -1.580642E+03  1.882367E+04 -4.288965E+02 -1.447255E+04  9.998137E-03
         1  22  6.010118E+03  5.113109E+04  6.698387E+04 -1.371463E-08 -4.570958E+04  2.975906E-10
         1  23 -4.294822E+03 -1.237471E+04  2.853156E+04  4.080763E-07 -3.009122E+04 -1.866534E-11
         1  24  6.009384E+03 -1.580642E+03  1.882367E+04  1.320166E-07 -1.447255E+04  1.986978E-10
         1  25  6.010119E+03  5.113109E+04  6.698387E+04 -8.596883E+02 -4.570958E+04  6.329547E-02
         1  26 -4.294822E+03 -1.237471E+04  2.853156E+04 -2.153964E+02 -3.009122E+04  1.044014E-02
         1  27  6.009384E+03 -1.580642E+03  1.882367E+04  4.288965E+02 -1.447255E+04 -9.998136E-03
         2   1  2.191116E+03  8.032266E+03  1.559847E+04  1.294664E+02  1.133876E+04  2.364540E-03
         2   2  4.775486E+02 -1.945763E+03  7.388690E+03  3.040100E+01  7.449359E+03  3.647807E-04
         2   3  2.191072E+03 -2.412583E+02  4.631787E+03 -6.866436E+01  3.559967E+03 -3.937323E-04
         2   4  2.191116E+03  8.032266E+03  1.559847E+04  3.934873E-07  1.133876E+04 -2.384142E-10
         2   5  4.775486E+02 -1.945763E+03  7.388690E+03 -1.633676E-07  7.449359E+03  1.950409E-10
         2   6  2.191072E+03 -2.412583E+02  4.631787E+03  3.998279E-07  3.559967E+03  4.886695E-13
         2   7  2.191116E+03  8.032266E+03  1.559847E+04 -1.294664E+02  1.133876E+04 -2.364541E-03
         2   8  4.775486E+02 -1.945763E+03  7.388690E+03 -3.040100E+01  7.449359E+03 -3.647805E-04
         2   9  2.191072E+03 -2.412583E+02  4.631787E+03  6.866436E+01  3.559967E+03  3.937323E-04
         2  10  2.190978E+03  8.032232E+03  1.559822E+04  1.294664E+02  1.344272E-09  4.993261E-11
         2  11  4.774890E+02 -1.945777E+03  7.388586E+03  3.040100E+01 -1.885074E-09  1.657464E-11
         2  12  2.191059E+03 -2.412617E+02  4.631764E+03 -6.866436E+01  1.480464E-09 -7.578566E-11
         2  13  2.190978E+03  8.032232E+03  1.559822E+04 -2.007118E-08  1.065540E-12 -3.344592E-11
         2  14  4.774890E+02 -1.945777E+03  7.388586E+03  1.123366E-07  1.077016E-09  9.620982E-11
         2  15  2.191059E+03 -2.412617E+02  4.631764E+03  1.413544E-07  1.076966E-09 -2.368401E-13
         2  16  2.190978E+03  8.032232E+03  1.559822E+04 -1.294664E+02 -1.075026E-09 -7.038449E-11
         2  17  4.774890E+02 -1.945777E+03  7.388586E+03 -3.040100E+01  1.615875E-09  6.210620E-11
         2  18  2.191059E+03 -2.412617E+02  4.631764E+03  6.866436E+01 -4.045500E-10  1.801618E-11
         2  19  2.191116E+03  8.032266E+03  1.559847E+04  1.294664E+02 -1.133876E+04 -2.364540E-03
         2  20  4.775486E+02 -1.945763E+03  7.388690E+03  3.040100E+01 -7.449359E+03 -3.647803E-04
         2  21  2.191072E+03 -2.412583E+02  4.631787E+03 -6.866436E+01 -3.559967E+03  3.937325E-04
         2  22  2.191116E+03  8.032266E+03  1.559847E+04  2.556345E-07 -1.133876E+04  2.680939E-10
         2  23  4.775486E+02 -1.945763E+03  7.388690E+03  1.812627E-07 -7.449359E+03 -1.286185E-10
         2  24  2.191072E+03 -2.412583E+02  4.631787E+03  1.241228E-07 -3.559967E+03 -1.618741E-13
         2  25  2.191116E+03  8.032266E+03  1.559847E+04 -1.294664E+02 -1.133876E+04  2.364540E-03
         2  26  4.775486E+02 -1.945763E+03  7.388690E+03 -3.040100E+01 -7.449359E+03  3.647804E-04
         2  27  2.191072E+03 -2.412583E+02  4.631787E+03  6.866437E+01 -3.559967E+03 -3.937325E-04
         3   1  1.559855E+03  1.255563E+03  3.725070E+03  1.888988E+01  2.800483E+03  8.520902E-05
         3   2  1.266543E+03 -3.057013E+02  1.910515E+03  3.904185E+00  1.819168E+03  1.144004E-05
         3   3  1.559853E+03 -3.154730E+01  1.193679E+03 -1.108129E+01  8.378695E+02 -1.495513E-05
         3   4  1.559855E+03  1.255563E+03  3.725070E+03  3.537021E-07  2.800483E+03 -1.285905E-10
         3   5  1.266543E+03 -3.057013E+02  1.910515E+03 -1.424795E-07  1.819168E+03  3.136275E-11
         3   6  1.559853E+03 -3.154730E+01  1.193679E+03  6.783554E-08  8.378695E+02 -4.685844E-12
         3   7  1.559855E+03  1.255563E+03  3.725070E+03 -1.888988E+01  2.800483E+03 -8.520921E-05
         3   8  1.266543E+03 -3.057013E+02  1.910515E+03 -3.904185E+00  1.819168E+03 -1.144014E-05
         3   9  1.559853E+03 -3.154730E+01  1.193679E+03  1.108129E+01  8.378695E+02  1.495522E-05
         3  10  1.559847E+03  1.255561E+03  3.725056E+03  1.888988E+01 -2.708360E-10 -6.115350E-11
         3  11  1.266540E+03 -3.057022E+02  1.910509E+03  3.904184E+00 -5.385200E-10  2.648193E-11
         3  12  1.559853E+03 -3.154749E+01  1.193677E+03 -1.108129E+01 -3.355403E-10 -1.122724E-11
         3  13  1.559847E+03  1.255561E+03  3.725056E+03  4.226284E-07  2.415752E-13 -1.716002E-11
         3  14  1.266540E+03 -3.057022E+02  1.910509E+03 -3.909005E-08 -2.154216E-09  2.438246E-11
         3  15  1.559853E+03 -3.154749E+01  1.193677E+03  1.712251E-07 -2.018804E-09 -1.328600E-11
         3  16  1.559847E+03  1.255561E+03  3.725056E+03 -1.888988E+01  1.220257E-12  1.379878E-11
         3  17  1.266540E+03 -3.057022E+02  1.910509E+03 -3.904184E+00  8.077908E-10  1.428335E-11
         3  18  1.559853E+03 -3.154749E+01  1.193677E+03  1.108129E+01 -4.719100E-10 -1.555063E-11
         3  19  1.559855E+03  1.255563E+03  3.725070E+03  1.888988E+01 -2.800483E+03 -8.520909E-05
         3  20  1.266543E+03 -3.057013E+02  1.910515E+03  3.904185E+00 -1.819168E+03 -1.144006E-05
         3  21  1.559853E+03 -3.154730E+01  1.193679E+03 -1.108129E+01 -8.378695E+02  1.495513E-05
         3  22  1.559855E+03  1.255563E+03  3.725070E+03  9.070298E-09 -2.800483E+03  7.476431E-11
         3  23  1.266543E+03 -3.057013E+02  1.910515E+03  1.332257E-07 -1.819168E+03  6.630186E-12
         3  24  1.559853E+03 -3.154730E+01  1.193679E+03  2.056882E-07 -8.378695E+02 -1.890656E-11
         3  25  1.559855E+03  1.255563E+03  3.725070E+03 -1.888988E+01 -2.800483E+03  8.520916E-05
         3  26  1.266543E+03 -3.057013E+02  1.910515E+03 -3.904184E+00 -1.819168E+03  1.144002E-05
         3  27  1.559853E+03 -3.154730E+01  1.193679E+03  1.108129E+01 -8.378695E+02 -1.495532E-05
         4   1  1.456571E+03  1.940141E+02  9.670025E+02  2.879178E+00  6.417281E+02  2.976034E-06
         4   2  1.395645E+03 -5.495586E+01  5.984198E+02  3.821828E-01  3.393998E+02  2.089157E-07
         4   3  1.456571E+03  2.600791E+01  5.091520E+02 -2.114848E+00  3.706705E+01 -1.263194E-07
         4   4  1.456571E+03  1.940141E+02  9.670025E+02  7.887179E-09  6.417281E+02 -1.872021E-11
         4   5  1.395645E+03 -5.495586E+01  5.984198E+02 -2.838577E-07  3.393998E+02 -1.482342E-12
         4   6  1.456571E+03  2.600791E+01  5.091520E+02  1.050466E-07  3.706705E+01 -3.307326E-11
         4   7  1.456571E+03  1.940141E+02  9.670025E+02 -2.879178E+00  6.417281E+02 -2.976014E-06
         4   8  1.395645E+03 -5.495586E+01  5.984198E+02 -3.821827E-01  3.393998E+02 -2.089143E-07
         4   9  1.456571E+03  2.600791E+01  5.091520E+02  2.114848E+00  3.706705E+01  1.262594E-07
         4  10  1.456570E+03  1.940140E+02  9.670017E+02  2.879177E+00 -2.695797E-10 -2.984216E-11
         4  11  1.395645E+03 -5.495589E+01  5.984196E+02  3.821820E-01 -1.885379E-09 -6.205032E-12
         4  12  1.456571E+03  2.600791E+01  5.091520E+02 -2.114849E+00 -1.414664E-09  1.913749E-11
         4  13  1.456570E+03  1.940140E+02  9.670017E+02 -6.103919E-08 -3.230868E-09 -3.075138E-11
         4  14  1.395645E+03 -5.495589E+01  5.984196E+02  9.523732E-08 -5.385458E-10 -3.689149E-12
         4  15  1.456571E+03  2.600791E+01  5.091520E+02  1.136624E-07 -6.731092E-10  3.399386E-11
         4  16  1.456570E+03  1.940140E+02  9.670017E+02 -2.879177E+00 -5.379131E-10 -4.007383E-11
         4  17  1.395645E+03 -5.495589E+01  5.984196E+02 -3.821824E-01  8.502593E-13  9.307268E-13
         4  18  1.456571E+03  2.600791E+01  5.091520E+02  2.114849E+00  1.616591E-09  5.022326E-11
         4  19  1.456571E+03  1.940141E+02  9.670025E+02  2.879177E+00 -6.417281E+02 -2.976111E-06
         4  20  1.395645E+03 -5.495586E+01  5.984198E+02  3.821825E-01 -3.393998E+02 -2.089129E-07
         4  21  1.456571E+03  2.600791E+01  5.091520E+02 -2.114849E+00 -3.706705E+01  1.263520E-07
         4  22  1.456571E+03  1.940141E+02  9.670025E+02  2.835927E-07 -6.417281E+02 -4.437435E-11
         4  23  1.395645E+03 -5.495586E+01  5.984198E+02 -8.152219E-09 -3.393998E+02 -7.895274E-12
         4  24  1.456571E+03  2.600791E+01  5.091520E+02  3.807522E-07 -3.706705E+01  9.961257E-11
         4  25  1.456571E+03  1.940141E+02  9.670025E+02 -2.879177E+00 -6.417281E+02  2.975981E-06
         4  26  1.395645E+03 -5.495586E+01  5.984198E+02 -3.821825E-01 -3.393998E+02  2.088840E-07
         4  27  1.456571E+03  2.600791E+01  5.091520E+02  2.114849E+00 -3.706705E+01 -1.261670E-07
         5   1  1.457448E+03  2.435363E+01  5.121372E+02  2.185283E+00 -5.557430E+01 -1.956578E-07
         5   2  1.394549E+03 -5.684750E+01  6.151918E+02 -4.006403E-01 -3.664229E+02  2.364710E-07
         5   3  1.457448E+03  2.032433E+02  1.005946E+03 -2.986562E+00 -6.772715E+02  3.258087E-06
         5   4  1.457448E+03  2.435363E+01  5.121372E+02  1.874520E-07 -5.557430E+01 -3.303045E-11
         5   5  1.394549E+03 -5.684750E+01  6.151918E+02 -1.985935E-07 -3.664229E+02  3.876366E-12
         5   6  1.457448E+03  2.032433E+02  1.005946E+03 -1.280018E-07 -6.772715E+02  2.880453E-11
         5   7  1.457448E+03  2.435363E+01  5.121372E+02 -2.185282E+00 -5.557430E+01  1.955874E-07
         5   8  1.394549E+03 -5.684750E+01  6.151918E+02  4.006406E-01 -3.664229E+02 -2.364827E-07
         5   9  1.457448E+03  2.032433E+02  1.005946E+03  2.986562E+00 -6.772715E+02 -3.258030E-06
         5  10  1.457448E+03  2.435363E+01  5.121372E+02  2.185282E+00 -2.674254E-10  8.756151E-12
         5  11  1.394549E+03 -5.684753E+01  6.151915E+02 -4.006409E-01  2.777983E-13 -1.312766E-12
         5  12  1.457447E+03  2.032432E+02  1.005945E+03 -2.986563E+00 -6.069811E-10  9.845691E-12
         5  13  1.457448E+03  2.435363E+01  5.121372E+02  3.253048E-07 -1.077305E-09  2.442905E-11
         5  14  1.394549E+03 -5.684753E+01  6.151915E+02 -2.675198E-07 -5.385620E-10 -1.902974E-11
         5  15  1.457447E+03  2.032432E+02  1.005945E+03 -5.045961E-08 -2.154142E-09 -4.029073E-13
         5  16  1.457448E+03  2.435363E+01  5.121372E+02 -2.185281E+00 -8.095537E-10  3.484321E-11
         5  17  1.394549E+03 -5.684753E+01  6.151915E+02  4.006412E-01 -1.346528E-09 -2.728088E-11
         5  18  1.457447E+03  2.032432E+02  1.005945E+03  2.986562E+00  9.435852E-10 -7.030611E-12
         5  19  1.457448E+03  2.435363E+01  5.121372E+02  2.185282E+00  5.557430E+01  1.956936E-07
         5  20  1.394549E+03 -5.684750E+01  6.151918E+02 -4.006418E-01  3.664229E+02 -2.364700E-07
         5  21  1.457448E+03  2.032433E+02  1.005946E+03 -2.986563E+00  6.772715E+02 -3.258062E-06
         5  22  1.457448E+03  2.435363E+01  5.121372E+02  5.320839E-07  5.557430E+01  8.105004E-11
         5  23  1.394549E+03 -5.684750E+01  6.151918E+02 -2.675198E-07  3.664229E+02 -4.284401E-11
         5  24  1.457448E+03  2.032433E+02  1.005946E+03  8.739314E-08  6.772715E+02 -2.999089E-11
         5  25  1.457448E+03  2.435363E+01  5.121372E+02 -2.185282E+00  5.557430E+01 -1.955238E-07
         5  26  1.394549E+03 -5.684750E+01  6.151918E+02  4.006402E-01  3.664229E+02  2.364148E-07
         5  27  1.457448E+03  2.032433E+02  1.005946E+03  2.986562E+00  6.772715E+02  3.257996E-06
         6   1  1.565936E+03 -3.346752E+01  1.244881E+03  1.160253E+01 -8.815826E+02 -1.647550E-05
         6   2  1.258940E+03 -3.200342E+02  1.997853E+03 -4.087193E+00 -1.907805E+03  1.255998E-05
         6   3  1.565938E+03  1.314852E+03  3.899311E+03 -1.977667E+01 -2.934013E+03  9.346289E-05
         6   4  1.565936E+03 -3.346752E+01  1.244881E+03  2.398526E-07 -8.815826E+02  4.198555E-11
         6   5  1.258940E+03 -3.200342E+02  1.997853E+03  2.964935E-07 -1.907805E+03 -9.463368E-12
         6   6  1.565938E+03  1.314852E+03  3.899311E+03  5.426808E-07 -2.934013E+03 -1.040521E-10
         6   7  1.565936E+03 -3.346752E+01  1.244881E+03 -1.160253E+01 -8.815826E+02  1.647554E-05
         6   8  1.258940E+03 -3.200342E+02  1.997853E+03  4.087193E+00 -1.907805E+03 -1.255999E-05
         6   9  1.565938E+03  1.314852E+03  3.899311E+03  1.977667E+01 -2.934013E+03 -9.346286E-05
         6  10  1.565935E+03 -3.346773E+01  1.244880E+03  1.160253E+01 -1.345641E-09  2.094146E-11
         6  11  1.258936E+03 -3.200352E+02  1.997847E+03 -4.087194E+00  8.082784E-10 -1.032383E-11
         6  12  1.565929E+03  1.314849E+03  3.899295E+03 -1.977667E+01  8.083861E-10 -1.278735E-12
         6  13  1.565935E+03 -3.346773E+01  1.244880E+03  3.777053E-07  6.750284E-13  1.324726E-11
         6  14  1.258936E+03 -3.200352E+02  1.997847E+03  1.931040E-07 -1.077025E-09 -2.177206E-13
         6  15  1.565929E+03  1.314849E+03  3.899295E+03  2.842069E-07  8.077301E-10 -3.051087E-11
         6  16  1.565935E+03 -3.346773E+01  1.244880E+03 -1.160253E+01 -2.703398E-10 -7.067743E-12
         6  17  1.258936E+03 -3.200352E+02  1.997847E+03  4.087194E+00 -8.081949E-10  3.933625E-11
         6  18  1.565929E+03  1.314849E+03  3.899295E+03  1.977667E+01 -1.077687E-09 -2.503779E-11
         6  19  1.565936E+03 -3.346752E+01  1.244881E+03  1.160253E+01  8.815826E+02  1.647551E-05
         6  20  1.258940E+03 -3.200342E+02  1.997853E+03 -4.087193E+00  1.907805E+03 -1.255963E-05
         6  21  1.565938E+03  1.314852E+03  3.899311E+03 -1.977667E+01  2.934013E+03 -9.346280E-05
         6  22  1.565936E+03 -3.346752E+01  1.244881E+03  2.398526E-07  8.815826E+02 -8.656489E-12
         6  23  1.258940E+03 -3.200342E+02  1.997853E+03  1.241777E-07  1.907805E+03  8.722107E-12
         6  24  1.565938E+03  1.314852E+03  3.899311E+03  2.583596E-07  2.934013E+03  4.226102E-11
         6  25  1.565936E+03 -3.346752E+01  1.244881E+03 -1.160253E+01  8.815826E+02 -1.647555E-05
         6  26  1.258940E+03 -3.200342E+02  1.997853E+03  4.087193E+00  1.907805E+03  1.255981E-05
         6  27  1.565938E+03  1.314852E+03  3.899311E+03  1.977667E+01  2.934013E+03  9.346258E-05
         7   1  2.227012E+03 -2.527292E+02  4.849254E+03  7.190695E+01 -3.729146E+03 -4.319200E-04
         7   2  4.326270E+02 -2.037623E+03  7.736912E+03 -3.183659E+01 -7.801796E+03  4.000794E-04
         7   3  2.227061E+03  8.411619E+03  1.633462E+04 -1.355817E+02 -1.187451E+04  2.593234E-03
         7   4  2.227012E+03 -2.527292E+02  4.849254E+03  3.626926E-07 -3.729146E+03  3.482603E-11
         7   5  4.326270E+02 -2.037623E+03  7.736912E+03 -4.409182E-08 -7.801796E+03  1.853379E-10
         7   6  2.227061E+03  8.411619E+03  1.633462E+04  2.125396E-07 -1.187451E+04  4.465524E-10
         7   7  2.227012E+03 -2.527292E+02  4.849254E+03 -7.190695E+01 -3.729146E+03  4.319205E-04
         7   8  4.326270E+02 -2.037623E+03  7.736912E+03  3.183659E+01 -7.801796E+03 -4.000807E-04
         7   9  2.227061E+03  8.411619E+03  1.633462E+04  1.355817E+02 -1.187451E+04 -2.593234E-03
         7  10  2.226997E+03 -2.527329E+02  4.849228E+03  7.190695E+01 -8.104578E-10 -5.635239E-11
         7  11  4.325616E+02 -2.037639E+03  7.736798E+03 -3.183659E+01 -1.257464E-12  6.133773E-11
         7  12  2.226909E+03  8.411581E+03  1.633436E+04 -1.355817E+02  3.379142E-10  1.641584E-10
         7  13  2.226997E+03 -2.527329E+02  4.849228E+03  8.698753E-08 -4.619673E-13 -2.719318E-11
         7  14  4.325616E+02 -2.037639E+03  7.736798E+03  9.376025E-08 -5.387859E-10  3.066641E-11
         7  15  2.226909E+03  8.411581E+03  1.633436E+04  8.330252E-08  1.349261E-10  7.836944E-11
         7  16  2.226997E+03 -2.527329E+02  4.849228E+03 -7.190695E+01 -1.882780E-09  1.964578E-12
         7  17  4.325616E+02 -2.037639E+03  7.736798E+03  3.183659E+01 -5.366278E-10  6.385565E-11
         7  18  2.226909E+03  8.411581E+03  1.633436E+04  1.355817E+02  1.348322E-09 -9.491912E-11
         7  19  2.227012E+03 -2.527292E+02  4.849254E+03  7.190695E+01  3.729146E+03  4.319211E-04
         7  20  4.326270E+02 -2.037623E+03  7.736912E+03 -3.183659E+01  7.801796E+03 -4.000792E-04
         7  21  2.227061E+03  8.411619E+03  1.633462E+04 -1.355817E+02  1.187451E+04 -2.593231E-03
         7  22  2.227012E+03 -2.527292E+02  4.849254E+03 -5.086498E-08  3.729146E+03 -6.702766E-11
         7  23  4.326270E+02 -2.037623E+03  7.736912E+03 -4.409181E-08  7.801796E+03 -1.159192E-10
         7  24  2.227061E+03  8.411619E+03  1.633462E+04  4.193188E-07  1.187451E+04 -2.674858E-10
         7  25  2.227012E+03 -2.527292E+02  4.849254E+03 -7.190695E+01  3.729146E+03 -4.319204E-04
         7  26  4.326270E+02 -2.037623E+03  7.736912E+03  3.183659E+01  7.801796E+03  4.000790E-04
         7  27  2.227061E+03  8.411619E+03  1.633462E+04  1.355817E+02  1.187451E+04  2.593231E-03
         8   1  6.225619E+03 -1.655230E+03  1.971224E+04  4.491449E+02 -1.515626E+04 -1.096478E-02
         8   2 -4.565062E+03 -1.295898E+04  2.987890E+04 -2.255660E+02 -3.151234E+04  1.144941E-02
         8   3  6.226427E+03  5.354566E+04  7.014724E+04 -9.002865E+02 -4.786834E+04  6.941504E-02
         8   4  6.225619E+03 -1.655230E+03  1.971224E+04 -6.165161E-08 -1.515626E+04 -9.022138E-11
         8   5 -4.565062E+03 -1.295898E+04  2.987890E+04 -3.546662E-07 -3.151234E+04 -1.531859E-09
         8   6  6.226426E+03  5.354566E+04  7.014724E+04 -1.652108E-07 -4.786834E+04 -5.553421E-10
         8   7  6.225619E+03 -1.655230E+03  1.971224E+04 -4.491449E+02 -1.515626E+04  1.096478E-02
         8   8 -4.565062E+03 -1.295898E+04  2.987890E+04  2.255660E+02 -3.151234E+04 -1.144941E-02
         8   9  6.226427E+03  5.354566E+04  7.014724E+04  9.002865E+02 -4.786834E+04 -6.941503E-02
         8  10  6.225373E+03 -1.655291E+03  1.971181E+04  4.491449E+02 -7.910393E-10  9.467095E-11
         8  11 -4.566129E+03 -1.295925E+04  2.987703E+04 -2.255660E+02  1.302551E-12 -5.068207E-10
         8  12  6.223966E+03  5.354504E+04  7.014293E+04 -9.002865E+02  3.279232E-10 -5.866131E-10
         8  13  6.225372E+03 -1.655292E+03  1.971181E+04  7.620012E-08 -1.088564E-09 -1.220593E-10
         8  14 -4.566129E+03 -1.295925E+04  2.987703E+04  1.278065E-07 -1.082955E-09 -5.850346E-10
         8  15  6.223966E+03  5.354504E+04  7.014293E+04  5.880372E-08 -9.403740E-10 -1.844191E-10
         8  16  6.225373E+03 -1.655291E+03  1.971181E+04 -4.491449E+02  1.337232E-09 -2.181065E-10
         8  17 -4.566129E+03 -1.295925E+04  2.987703E+04  2.255660E+02  3.228631E-09 -6.897922E-10
         8  18  6.223966E+03  5.354504E+04  7.014293E+04  9.002865E+02  1.906444E-09 -6.231798E-10
         8  19  6.225619E+03 -1.655230E+03  1.971224E+04  4.491449E+02  1.515626E+04  1.096478E-02
         8  20 -4.565062E+03 -1.295898E+04  2.987890E+04 -2.255660E+02  3.151234E+04 -1.144941E-02
         8  21  6.226427E+03  5.354566E+04  7.014724E+04 -9.002865E+02  4.786834E+04 -6.941503E-02
         8  22  6.225619E+03 -1.655230E+03  1.971224E+04  4.208295E-07  1.515626E+04 -1.133641E-10
         8  23 -4.565062E+03 -1.295898E+04  2.987890E+04  1.967312E-07  3.151234E+04  4.547318E-10
         8  24  6.226426E+03  5.354566E+04  7.014724E+04  6.741969E-08  4.786834E+04 -1.722353E-10
         8  25  6.225619E+03 -1.655230E+03  1.971224E+04 -4.491449E+02  1.515626E+04 -1.096478E-02
         8  26 -4.565062E+03 -1.295898E+04  2.987890E+04  2.255660E+02  3.151234E+04  1.144941E-02
         8  27  6.226427E+03  5.354566E+04  7.014724E+04  9.002865E+02  4.786834E+04  6.941503E-02
         9   1  6.911494E+05  2.516213E+06  6.560672E+05 -4.793019E+05  3.218483E+04  2.499306E+05
         9   2  5.571022E+05  2.145591E+06  4.416733E+05 -4.403048E+05  1.066992E+05  1.144397E+05
         9   3  4.593462E+05  1.802016E+06  3.244101E+05 -4.589209E+05  1.240935E+05 -2.094761E+04
         9   4  3.098803E+04 -1.654145E+05  3.310914E+04 -4.565781E+05  3.239533E+04  2.188535E+04
         9   5  1.017292E+04 -1.676720E+05  1.760625E+04 -4.277886E+05  1.068511E+05  1.303235E+04
         9   6  3.781471E+03 -1.648791E+05  1.151858E+04 -4.566098E+05  1.240930E+05  4.195201E+03
         9   7 -6.296504E+05 -2.840308E+06 -5.901381E+05 -4.339492E+05  3.258993E+04 -2.051849E+05
         9   8 -5.370537E+05 -2.475729E+06 -4.066410E+05 -4.153171E+05  1.069994E+05 -8.800820E+04
         9   9 -4.519759E+05 -2.127932E+06 -3.014701E+05 -4.543038E+05  1.240928E+05  2.926141E+04
         9  10  6.911315E+05  2.516146E+06  6.559483E+05 -4.793084E+05 -1.713636E-10  4.826312E-10
         9  11  5.570864E+05  2.145574E+06  4.416274E+05 -4.403147E+05  8.783577E-10 -1.020299E-09
         9  12  4.593295E+05  1.802012E+06  3.243803E+05 -4.589188E+05 -5.966156E-10 -2.600970E-09
         9  13  3.098678E+04 -1.654153E+05  3.310626E+04 -4.565786E+05  1.008398E-10 -2.675552E-14
         9  14  1.016061E+04 -1.676752E+05  1.758447E+04 -4.277897E+05  5.693245E-10  3.050918E-12
         9  15  3.764932E+03 -1.648833E+05  1.148961E+04 -4.566103E+05  5.833161E-10  1.363175E-11
         9  16 -6.296629E+05 -2.840354E+06 -5.902195E+05 -4.339438E+05  3.598191E-10 -5.458394E-10
         9  17 -5.370681E+05 -2.475740E+06 -4.066771E+05 -4.153095E+05  2.909203E-10  9.487203E-10
         9  18 -4.519926E+05 -2.127937E+06 -3.015007E+05 -4.543067E+05 -2.735407E-09  2.615528E-09
         9  19  6.911494E+05  2.516213E+06  6.560672E+05 -4.793019E+05 -3.218483E+04 -2.499306E+05
         9  20  5.571022E+05  2.145591E+06  4.416733E+05 -4.403048E+05 -1.066992E+05 -1.144397E+05
         9  21  4.593462E+05  1.802016E+06  3.244101E+05 -4.589209E+05 -1.240935E+05  2.094761E+04
         9  22  3.098803E+04 -1.654145E+05  3.310914E+04 -4.565781E+05 -3.239533E+04 -2.188535E+04
         9  23  1.017292E+04 -1.676720E+05  1.760625E+04 -4.277886E+05 -1.068511E+05 -1.303235E+04
         9  24  3.781471E+03 -1.648791E+05  1.151858E+04 -4.566098E+05 -1.240930E+05 -4.195201E+03
         9  25 -6.296504E+05 -2.840308E+06 -5.901381E+05 -4.339492E+05 -3.258993E+04  2.051849E+05
         9  26 -5.370537E+05 -2.475729E+06 -4.066410E+05 -4.153171E+05 -1.069994E+05  8.800820E+04
         9  27 -4.519759E+05 -2.127932E+06 -3.014701E+05 -4.543038E+05 -1.240928E+05 -2.926141E+04
        10   1  4.050605E+05  1.575242E+06  2.795474E+05 -4.609094E+05  1.151486E+05 -2.428247E+04
        10   2  3.195934E+05  1.216376E+06  2.124372E+05 -4.277783E+05  9.955674E+04 -4.489497E+04
        10   3  2.403364E+05  8.618498E+05  1.602729E+05 -4.564189E+05  7.692288E+04 -6.551887E+04
        10   4  3.335733E+03 -1.655122E+05  1.020293E+04 -4.575364E+05  1.151355E+05  2.496926E+03
        10   5  2.797347E+03 -1.661034E+05  1.003480E+04 -4.266457E+05  9.950196E+04 -2.531823E+03
        10   6  5.777662E+03 -1.651791E+05  1.400848E+04 -4.575345E+05  7.681830E+04 -7.583068E+03
        10   7 -3.985361E+05 -1.903242E+06 -2.592082E+05 -4.541710E+05  1.151226E+05  2.920423E+04
        10   8 -3.140863E+05 -1.546656E+06 -1.923939E+05 -4.255143E+05  9.944725E+04  3.974104E+04
        10   9 -2.288269E+05 -1.191135E+06 -1.322587E+05 -4.586473E+05  7.671339E+04  5.026112E+04
        10  10  4.050461E+05  1.575237E+06  2.795214E+05 -4.609071E+05 -1.118980E-09  3.650646E-10
        10  11  3.195822E+05  1.216371E+06  2.124149E+05 -4.277747E+05 -4.807801E-10 -2.953049E-10
        10  12  2.403289E+05  8.618436E+05  1.602538E+05 -4.564148E+05 -9.867744E-10 -9.467968E-10
        10  13  3.321498E+03 -1.655158E+05  1.017801E+04 -4.575366E+05 -7.488647E-10  4.122622E-11
        10  14  2.786715E+03 -1.661060E+05  1.001618E+04 -4.266455E+05 -3.931356E-10  6.268936E-11
        10  15  5.771311E+03 -1.651808E+05  1.399729E+04 -4.575340E+05 -6.936594E-10  1.856077E-11
        10  16 -3.985506E+05 -1.903246E+06 -2.592347E+05 -4.541738E+05 -1.660213E-09 -3.577738E-10
        10  17 -3.140973E+05 -1.546660E+06 -1.924155E+05 -4.255175E+05 -7.683309E-10  3.484101E-10
        10  18 -2.288339E+05 -1.191139E+06 -1.322745E+05 -4.586504E+05 -6.535972E-10  8.123774E-10
        10  19  4.050605E+05  1.575242E+06  2.795474E+05 -4.609094E+05 -1.151486E+05  2.428247E+04
        10  20  3.195934E+05  1.216376E+06  2.124372E+05 -4.277783E+05 -9.955674E+04  4.489497E+04
        10  21  2.403364E+05  8.618498E+05  1.602729E+05 -4.564189E+05 -7.692288E+04  6.551887E+04
        10  22  3.335733E+03 -1.655122E+05  1.020293E+04 -4.575364E+05 -1.151355E+05 -2.496926E+03
        10  23  2.797347E+03 -1.661034E+05  1.003480E+04 -4.266457E+05 -9.950196E+04  2.531823E+03
        10  24  5.777662E+03 -1.651791E+05  1.400848E+04 -4.575345E+05 -7.681830E+04  7.583068E+03
        10  25 -3.985361E+05 -1.903242E+06 -2.592082E+05 -4.541710E+05 -1.151226E+05 -2.920423E+04
        10  26 -3.140863E+05 -1.546656E+06 -1.923939E+05 -4.255143E+05 -9.944725E+04 -3.974104E+04
        10  27 -2.288269E+05 -1.191135E+06 -1.322587E+05 -4.586473E+05 -7.671339E+04 -5.026112E+04
        11   1  1.906070E+05  6.406856E+05  1.305510E+05 -4.579554E+05  6.136981E+04 -6.810178E+04
        11   2  1.215954E+05  2.800769E+05  9.236860E+04 -4.080257E+05  3.491996E+04 -8.446281E+04
        11   3  7.768738E+04 -7.216060E+04  7.106392E+04 -4.203477E+05  8.104005E+03 -1.008229E+05
        11   4  7.190537E+03 -1.636420E+05  1.753704E+04 -4.576437E+05  6.125559E+04 -9.984825E+03
        11   5  1.976012E+04 -1.676300E+05  3.039626E+04 -4.264793E+05  3.479888E+04 -2.554837E+04
        11   6  5.730144E+04 -1.635291E+05  5.956813E+04 -4.575581E+05  7.976998E+03 -4.111895E+04
        11   7 -1.762531E+05 -9.673073E+05 -9.547281E+04 -4.573319E+05  6.114133E+04  4.806019E+04
        11   8 -8.208082E+04 -6.151253E+05 -3.156520E+04 -4.449189E+05  3.467423E+04  3.332550E+04
        11   9  3.692230E+04 -2.548783E+05  4.808647E+04 -4.947627E+05  7.842820E+03  1.857663E+04
        11  10  1.906018E+05  6.406796E+05  1.305353E+05 -4.579520E+05 -8.406598E-11 -4.147640E-10
        11  11  1.215922E+05  2.800689E+05  9.235292E+04 -4.080234E+05  6.099838E-10  4.589608E-10
        11  12  7.768458E+04 -7.217153E+04  7.104469E+04 -4.203471E+05  8.645284E-10  1.237678E-09
        11  13  7.186482E+03 -1.636431E+05  1.752980E+04 -4.576432E+05 -2.847999E-09 -5.907653E-11
        11  14  1.975865E+04 -1.676311E+05  3.039276E+04 -4.264786E+05 -1.179653E-09 -4.049185E-11
        11  15  5.730092E+04 -1.635309E+05  5.956483E+04 -4.575578E+05 -1.124586E-09 -2.614974E-11
        11  16 -1.762577E+05 -9.673108E+05 -9.548419E+04 -4.573342E+05 -2.366005E-09  3.447422E-10
        11  17 -8.208241E+04 -6.151268E+05 -3.156955E+04 -4.449198E+05 -2.312002E-09 -5.968372E-10
        11  18  3.692214E+04 -2.548787E+05  4.808570E+04 -4.947628E+05 -2.540445E-10 -1.243922E-09
        11  19  1.906070E+05  6.406856E+05  1.305510E+05 -4.579554E+05 -6.136981E+04  6.810178E+04
        11  20  1.215954E+05  2.800769E+05  9.236860E+04 -4.080257E+05 -3.491996E+04  8.446281E+04
        11  21  7.768738E+04 -7.216060E+04  7.106392E+04 -4.203477E+05 -8.104005E+03  1.008229E+05
        11  22  7.190537E+03 -1.636420E+05  1.753704E+04 -4.576437E+05 -6.125559E+04  9.984825E+03
        11  23  1.976012E+04 -1.676300E+05  3.039626E+04 -4.264793E+05 -3.479888E+04  2.554837E+04
        11  24  5.730144E+04 -1.635291E+05  5.956813E+04 -4.575581E+05 -7.976998E+03  4.111895E+04
        11  25 -1.762531E+05 -9.673073E+05 -9.547281E+04 -4.573319E+05 -6.114133E+04 -4.806019E+04
        11  26 -8.208082E+04 -6.151253E+05 -3.156520E+04 -4.449189E+05 -3.467423E+04 -3.332550E+04
        11  27  3.692230E+04 -2.548783E+05  4.808647E+04 -4.947627E+05 -7.842820E+03 -1.857663E+04
        12   1 -2.122491E+06 -6.270041E+05 -4.291420E+05 -7.216900E+05 -2.609801E+05 -9.739215E+04
        12   2 -2.040923E+06 -2.493094E+05 -1.842731E+05 -7.970610E+05 -1.680623E+05 -6.176458E+04
        12   3 -2.119008E+06 -2.855516E+05 -1.206777E+05 -7.734032E+05 -7.476789E+04 -2.714011E+04
        12   4 -2.090766E+06 -5.709342E+05 -4.116050E+05 -6.677207E+05 -2.607200E+05 -9.731804E+04
        12   5 -1.990402E+06 -2.188342E+05 -1.682124E+05 -7.715924E+05 -1.680265E+05 -6.175507E+04