
 stresses (elem, integ.pnt.,sxx,syy,szz,sxy,sxz,syz) for set ELALL and time  0.1000000E+01

         1   1  2.747577E+06  1.005189E+07  2.601589E+06 -1.958375E+06  1.249946E+05  1.004956E+06
         1   2  2.222338E+06  8.566812E+06  1.747895E+06 -1.810431E+06  4.221953E+05  4.608396E+05
         1   3  1.840644E+06  7.193683E+06  1.281868E+06 -1.887217E+06  4.947208E+05 -8.159124E+04
         1   4  1.094722E+05 -7.103788E+05  1.135378E+05 -1.855106E+06  1.284410E+05  7.385578E+04
         1   5  3.658073E+04 -7.172256E+05  6.085257E+04 -1.742981E+06  4.246700E+05  4.487684E+04
         1   6  1.963004E+04 -7.018205E+05  4.170084E+04 -1.855558E+06  4.947336E+05  1.616148E+04
         1   7 -2.536249E+06 -1.136482E+07 -2.379041E+06 -1.753387E+06  1.316298E+05 -8.414259E+05
         1   8 -2.153913E+06 -9.917784E+06 -1.629002E+06 -1.676363E+06  4.270828E+05 -3.651013E+05
         1   9 -1.804447E+06 -8.535609E+06 -1.199964E+06 -1.824145E+06  4.947561E+05  1.127269E+05
         1  10  2.747294E+06  1.005082E+07  2.599690E+06 -1.958476E+06  1.580881E-09  1.082392E-08
         1  11  2.222090E+06  8.566537E+06  1.747164E+06 -1.810587E+06  4.222666E-09  1.056069E-09
         1  12  1.840380E+06  7.193610E+06  1.281396E+06 -1.887185E+06  7.052605E-09 -8.297094E-09
         1  13  1.094530E+05 -7.103891E+05  1.134964E+05 -1.855114E+06 -2.701871E-09 -4.573102E-11
         1  14  3.638653E+04 -7.172762E+05  6.050975E+04 -1.742996E+06  8.385104E-09 -2.545179E-11
         1  15  1.936721E+04 -7.018865E+05  4.124044E+04 -1.855565E+06  2.023971E-09 -1.413380E-10
         1  16 -2.536462E+06 -1.136559E+07 -2.380427E+06 -1.753298E+06  1.610517E-09 -1.095365E-08
         1  17 -2.154144E+06 -9.917977E+06 -1.629597E+06 -1.676237E+06  8.389331E-10 -1.103768E-09
         1  18 -1.804714E+06 -8.535689E+06 -1.200449E+06 -1.824190E+06  9.079095E-09  8.400298E-09
         1  19  2.747577E+06  1.005189E+07  2.601589E+06 -1.958375E+06 -1.249946E+05 -1.004956E+06
         1  20  2.222338E+06  8.566812E+06  1.747895E+06 -1.810431E+06 -4.221953E+05 -4.608396E+05
         1  21  1.840644E+06  7.193683E+06  1.281868E+06 -1.887217E+06 -4.947208E+05  8.159124E+04
         1  22  1.094722E+05 -7.103788E+05  1.135378E+05 -1.855106E+06 -1.284410E+05 -7.385578E+04
         1  23  3.658073E+04 -7.172256E+05  6.085257E+04 -1.742981E+06 -4.246700E+05 -4.487684E+04
         1  24  1.963004E+04 -7.018205E+05  4.170084E+04 -1.855558E+06 -4.947336E+05 -1.616148E+04
         1  25 -2.536249E+06 -1.136482E+07 -2.379041E+06 -1.753387E+06 -1.316298E+05  8.414259E+05
         1  26 -2.153913E+06 -9.917784E+06 -1.629002E+06 -1.676363E+06 -4.270828E+05  3.651013E+05
         1  27 -1.804447E+06 -8.535609E+06 -1.199964E+06 -1.824145E+06 -4.947561E+05 -1.127269E+05
         2   1  1.627496E+06  6.287701E+06  1.104103E+06 -1.894087E+06  4.602817E+05 -9.754059E+04
         2   2  1.290352E+06  4.850808E+06  8.386875E+05 -1.761609E+06  3.994868E+05 -1.815666E+05
         2   3  9.804777E+05  3.433375E+06  6.343843E+05 -1.870417E+06  3.102664E+05 -2.657630E+05
         2   4  2.061381E+04 -7.029350E+05  3.747963E+04 -1.859270E+06  4.600778E+05  9.633612E+03
         2   5  2.220945E+04 -7.034240E+05  3.844130E+04 -1.738533E+06  3.986038E+05 -9.691003E+03
         2   6  4.006263E+04 -6.975903E+05  5.587077E+04 -1.859206E+06  3.085720E+05 -2.936658E+04
         2   7 -1.588606E+06 -7.644922E+06 -1.030157E+06 -1.824718E+06  4.598839E+05  1.156566E+05
         2   8 -1.247325E+06 -6.226592E+06 -7.621819E+05 -1.715581E+06  3.977277E+05  1.607210E+05
         2   9 -9.010823E+05 -4.811193E+06 -5.226546E+05 -1.848017E+06  3.068780E+05  2.055327E+05
         2  10  1.627266E+06  6.287634E+06  1.103688E+06 -1.894051E+06  3.347599E-09  1.794487E-08
         2  11  1.290172E+06  4.850730E+06  8.383272E+05 -1.761551E+06  8.853564E-09  1.599583E-08
         2  12  9.803559E+05  3.433274E+06  6.340726E+05 -1.870351E+06  8.655231E-09  1.182563E-08
         2  13  2.038655E+04 -7.029919E+05  3.708177E+04 -1.859274E+06 -1.494657E-09  6.131310E-11
         2  14  2.203890E+04 -7.034667E+05  3.814271E+04 -1.738530E+06  5.376820E-10 -5.720623E-11
         2  15  3.996024E+04 -6.976167E+05  5.569042E+04 -1.859199E+06 -6.565752E-09 -4.581572E-10
         2  16 -1.588837E+06 -7.644993E+06 -1.030580E+06 -1.824761E+06  3.592626E-09 -1.775239E-08
         2  17 -1.247502E+06 -6.226662E+06 -7.625288E+05 -1.715633E+06  4.620446E-09 -1.570452E-08
         2  18 -9.011951E+05 -4.811265E+06 -5.229123E+05 -1.848068E+06  3.735015E-09 -1.184785E-08
         2  19  1.627496E+06  6.287701E+06  1.104103E+06 -1.894087E+06 -4.602817E+05  9.754059E+04
         2  20  1.290352E+06  4.850808E+06  8.386875E+05 -1.761609E+06 -3.994868E+05  1.815666E+05
         2  21  9.804777E+05  3.433375E+06  6.343843E+05 -1.870417E+06 -3.102664E+05  2.657630E+05
         2  22  2.061381E+04 -7.029350E+05  3.747963E+04 -1.859270E+06 -4.600778E+05 -9.633612E+03
         2  23  2.220945E+04 -7.034240E+05  3.844130E+04 -1.738533E+06 -3.986038E+05  9.691003E+03
         2  24  4.006263E+04 -6.975903E+05  5.587077E+04 -1.859206E+06 -3.085720E+05  2.936658E+04
         2  25 -1.588606E+06 -7.644922E+06 -1.030157E+06 -1.824718E+06 -4.598839E+05 -1.156566E+05
         2  26 -1.247325E+06 -6.226592E+06 -7.621819E+05 -1.715581E+06 -3.977277E+05 -1.607210E+05
         2  27 -9.010823E+05 -4.811193E+06 -5.226546E+05 -1.848017E+06 -3.068780E+05 -2.055327E+05
         3   1  7.851280E+05  2.550953E+06  5.185804E+05 -1.872626E+06  2.484288E+05 -2.767257E+05
         3   2  5.110434E+05  1.110719E+06  3.709599E+05 -1.668851E+06  1.430125E+05 -3.447419E+05
         3   3  3.388882E+05 -2.956545E+05  2.923360E+05 -1.708376E+06  3.546829E+04 -4.127431E+05
         3   4  4.787676E+04 -6.909258E+05  7.043765E+04 -1.859682E+06  2.465769E+05 -3.932241E+04
         3   5  9.978844E+04 -7.054160E+05  1.229164E+05 -1.737417E+06  1.410375E+05 -1.027087E+05
         3   6  2.529446E+05 -6.890852E+05  2.410091E+05 -1.858308E+06  3.338564E+04 -1.662121E+05
         3   7 -6.898071E+05 -3.922035E+06 -3.776164E+05 -1.846774E+06  2.447281E+05  1.969007E+05
         3   8 -3.115581E+05 -2.518060E+06 -1.249384E+05 -1.805763E+06  1.390049E+05  1.386496E+05
         3   9  1.671132E+05 -1.082177E+06  1.899223E+05 -2.008141E+06  3.118290E+04  8.017009E+04
         3  10  7.850416E+05  2.550854E+06  5.183221E+05 -1.872571E+06  4.076784E-09 -4.805859E-09
         3  11  5.109898E+05  1.110586E+06  3.706991E+05 -1.668811E+06  9.404079E-09 -1.287045E-08
         3  12  3.388411E+05 -2.958377E+05  2.920135E+05 -1.708364E+06  3.998634E-09 -1.870352E-08
         3  13  4.781113E+04 -6.909437E+05  7.032068E+04 -1.859674E+06 -1.231817E-08 -3.308953E-10
         3  14  9.976432E+04 -7.054326E+05  1.228594E+05 -1.737405E+06 -3.807301E-09 -2.454407E-10
         3  15  2.529360E+05 -6.891152E+05  2.409551E+05 -1.858303E+06 -7.721500E-10  2.954170E-12
         3  16 -6.898821E+05 -3.922093E+06 -3.778028E+05 -1.846813E+06  1.410232E-09  4.375301E-09
         3  17 -3.115841E+05 -2.518086E+06 -1.250112E+05 -1.805779E+06  2.867869E-09  1.301924E-08
         3  18  1.671104E+05 -1.082184E+06  1.899083E+05 -2.008143E+06 -1.361473E-09  1.854402E-08
         3  19  7.851280E+05  2.550953E+06  5.185804E+05 -1.872626E+06 -2.484288E+05  2.767257E+05
         3  20  5.110434E+05  1.110719E+06  3.709599E+05 -1.668851E+06 -1.430125E+05  3.447419E+05
         3  21  3.388882E+05 -2.956545E+05  2.923360E+05 -1.708376E+06 -3.546829E+04  4.127431E+05
         3  22  4.787676E+04 -6.909258E+05  7.043765E+04 -1.859682E+06 -2.465769E+05  3.932241E+04
         3  23  9.978844E+04 -7.054160E+05  1.229164E+05 -1.737417E+06 -1.410375E+05  1.027087E+05
         3  24  2.529446E+05 -6.890852E+05  2.410091E+05 -1.858308E+06 -3.338564E+04  1.662121E+05
         3  25 -6.898071E+05 -3.922035E+06 -3.776164E+05 -1.846774E+06 -2.447281E+05 -1.969007E+05
         3  26 -3.115581E+05 -2.518060E+06 -1.249384E+05 -1.805763E+06 -1.390049E+05 -1.386496E+05
         3  27  1.671132E+05 -1.082177E+06  1.899223E+05 -2.008141E+06 -3.118290E+04 -8.017009E+04
         4   1 -1.067629E+07 -3.116698E+06 -2.206820E+06 -3.585065E+06 -1.434047E+06 -5.389122E+05
         4   2 -1.018292E+07 -1.051031E+06 -8.471957E+05 -4.052294E+06 -9.206139E+05 -3.501920E+05
         4   3 -1.059030E+07 -1.315498E+06 -5.023155E+05 -3.960187E+06 -4.086563E+05 -1.576159E+05
         4   4 -1.106799E+07 -3.094484E+06 -2.281429E+06 -3.515247E+06 -1.434141E+06 -5.394543E+05
         4   5 -1.050004E+07 -1.128049E+06 -9.264805E+05 -4.093511E+06 -9.204989E+05 -3.502319E+05
         4   6 -1.083326E+07 -1.492569E+06 -5.869052E+05 -4.112363E+06 -4.082594E+05 -1.573954E+05
         4   7 -1.145948E+07 -3.072196E+06 -2.356024E+06 -3.445488E+06 -1.434235E+06 -5.399965E+05
         4   8 -1.081705E+07 -1.205070E+06 -1.005772E+06 -4.134714E+06 -9.203839E+05 -3.502718E+05
         4   9 -1.107615E+07 -1.669571E+06 -6.714989E+05 -4.264468E+06 -4.078626E+05 -1.571750E+05
         4  10 -1.067861E+07 -3.117580E+06 -2.211317E+06 -3.585695E+06 -4.528795E-09 -6.090265E-10
         4  11 -1.018387E+07 -1.051398E+06 -8.490547E+05 -4.052557E+06 -9.094755E-09  2.267604E-09
         4  12 -1.059048E+07 -1.315571E+06 -5.026832E+05 -3.960239E+06  1.046755E-09  6.517716E-10
         4  13 -1.107031E+07 -3.095367E+06 -2.285930E+06 -3.515878E+06  4.202848E-09  1.998867E-10
         4  14 -1.050099E+07 -1.128416E+06 -9.283400E+05 -4.093773E+06  3.812673E-09  1.108751E-09
         4  15 -1.083345E+07 -1.492642E+06 -5.872723E+05 -4.112415E+06  3.908736E-09  3.177055E-10
         4  16 -1.146180E+07 -3.073081E+06 -2.360529E+06 -3.446120E+06  5.954017E-09  6.227804E-10
         4  17 -1.081801E+07 -1.205437E+06 -1.007632E+06 -4.134977E+06 -1.790460E-09  3.196706E-09
         4  18 -1.107634E+07 -1.669643E+06 -6.718655E+05 -4.264520E+06  1.094060E-09 -1.732569E-09
         4  19 -1.067629E+07 -3.116698E+06 -2.206820E+06 -3.585065E+06  1.434047E+06  5.389122E+05
         4  20 -1.018292E+07 -1.051031E+06 -8.471957E+05 -4.052294E+06  9.206139E+05  3.501920E+05
         4  21 -1.059030E+07 -1.315498E+06 -5.023155E+05 -3.960187E+06  4.086563E+05  1.576159E+05
         4  22 -1.106799E+07 -3.094484E+06 -2.281429E+06 -3.515247E+06  1.434141E+06  5.394543E+05
         4  23 -1.050004E+07 -1.128049E+06 -9.264805E+05 -4.093511E+06  9.204989E+05  3.502319E+05
         4  24 -1.083326E+07 -1.492569E+06 -5.869052E+05 -4.112363E+06  4.082594E+05  1.573954E+05
         4  25 -1.145948E+07 -3.072196E+06 -2.356024E+06 -3.445488E+06  1.434235E+06  5.399965E+05
         4  26 -1.081705E+07 -1.205070E+06 -1.005772E+06 -4.134714E+06  9.203839E+05  3.502718E+05
         4  27 -1.107615E+07 -1.669571E+06 -6.714989E+05 -4.264468E+06  4.078626E+05  1.571750E+05
         5   1 -1.050943E+07 -1.665989E+06 -4.141664E+05 -3.894010E+06 -3.202097E+05 -1.239161E+05
         5   2 -1.043601E+07 -1.393930E+06 -1.546262E+05 -4.003046E+06 -2.053435E+05 -8.070925E+04
         5   3 -1.055706E+07 -1.419202E+06 -7.638096E+04 -3.967967E+06 -9.114409E+04 -3.573638E+04
         5   4 -1.077800E+07 -1.743553E+06 -4.838458E+05 -3.941572E+06 -3.202572E+05 -1.239506E+05
         5   5 -1.066276E+07 -1.474507E+06 -2.164518E+05 -4.058629E+06 -2.051697E+05 -8.064625E+04
         5   6 -1.074209E+07 -1.502918E+06 -1.305945E+05 -4.031557E+06 -9.074037E+04 -3.558132E+04
         5   7 -1.104651E+07 -1.821119E+06 -5.535306E+05 -3.989118E+06 -3.203046E+05 -1.239850E+05
         5   8 -1.088946E+07 -1.555083E+06 -2.782820E+05 -4.114193E+06 -2.049959E+05 -8.058327E+04
         5   9 -1.092708E+07 -1.586628E+06 -1.848115E+05 -4.095129E+06 -9.033678E+04 -3.542633E+04
         5  10 -1.050954E+07 -1.666033E+06 -4.143923E+05 -3.894043E+06  4.992499E-10 -1.019142E-10
         5  11 -1.043606E+07 -1.393949E+06 -1.547195E+05 -4.003060E+06  2.301962E-09  1.912007E-09
         5  12 -1.055707E+07 -1.419206E+06 -7.639932E+04 -3.967969E+06  3.970554E-09  4.884951E-10
         5  13 -1.077812E+07 -1.743598E+06 -4.840718E+05 -3.941604E+06 -6.283341E-10  3.254222E-10
         5  14 -1.066281E+07 -1.474526E+06 -2.165450E+05 -4.058642E+06  1.894146E-09 -2.675329E-10
         5  15 -1.074210E+07 -1.502922E+06 -1.306127E+05 -4.031560E+06  1.946231E-09 -1.730139E-09
         5  16 -1.104662E+07 -1.821164E+06 -5.537568E+05 -3.989151E+06  7.321079E-10 -5.737757E-10
         5  17 -1.088951E+07 -1.555101E+06 -2.783750E+05 -4.114207E+06  2.411984E-09 -3.740981E-09
         5  18 -1.092709E+07 -1.586632E+06 -1.848295E+05 -4.095132E+06 -2.402697E-09 -1.443166E-09
         5  19 -1.050943E+07 -1.665989E+06 -4.141664E+05 -3.894010E+06  3.202097E+05  1.239161E+05
         5  20 -1.043601E+07 -1.393930E+06 -1.546262E+05 -4.003046E+06  2.053435E+05  8.070925E+04
         5  21 -1.055706E+07 -1.419202E+06 -7.638096E+04 -3.967967E+06  9.114409E+04  3.573638E+04
         5  22 -1.077800E+07 -1.743553E+06 -4.838458E+05 -3.941572E+06  3.202572E+05  1.239506E+05
         5  23 -1.066276E+07 -1.474507E+06 -2.164518E+05 -4.058629E+06  2.051697E+05  8.064625E+04
         5  24 -1.074209E+07 -1.502918E+06 -1.305945E+05 -4.031557E+06  9.074037E+04  3.558132E+04
         5  25 -1.104651E+07 -1.821119E+06 -5.535306E+05 -3.989118E+06  3.203046E+05  1.239850E+05
         5  26 -1.088946E+07 -1.555083E+06 -2.782820E+05 -4.114193E+06  2.049959E+05  8.058327E+04
         5  27 -1.092708E+07 -1.586628E+06 -1.848115E+05 -4.095129E+06  9.033678E+04  3.542633E+04
         6   1 -1.085434E+07 -1.590705E+06 -1.392432E+05 -4.042872E+06 -7.228009E+04 -2.693075E+04
         6   2 -1.084632E+07 -1.587307E+06 -9.437410E+04 -4.096760E+06 -4.663426E+04 -1.537309E+04
         6   3 -1.092075E+07 -1.576735E+06 -8.356089E+04 -4.070125E+06 -2.058507E+04 -4.884669E+03
         6   4 -1.073253E+07 -1.540562E+06 -1.045086E+05 -4.006082E+06 -7.195753E+04 -2.680929E+04
         6   5 -1.068860E+07 -1.526271E+06 -5.035541E+04 -4.053034E+06 -4.647262E+04 -1.531214E+04
         6   6 -1.072707E+07 -1.504768E+06 -3.012467E+04 -4.019469E+06 -2.058272E+04 -4.883767E+03
         6   7 -1.061069E+07 -1.490416E+06 -6.977534E+04 -3.969284E+06 -7.163489E+04 -2.668780E+04
         6   8 -1.053084E+07 -1.465233E+06 -6.339012E+03 -4.009299E+06 -4.631093E+04 -1.525118E+04
         6   9 -1.053336E+07 -1.432800E+06  2.330813E+04 -3.968798E+06 -2.058037E+04 -4.882865E+03
         6  10 -1.085435E+07 -1.590708E+06 -1.392547E+05 -4.042874E+06  2.944872E-09 -4.749820E-09
         6  11 -1.084633E+07 -1.587308E+06 -9.437872E+04 -4.096760E+06 -8.448599E-10 -5.745417E-09
         6  12 -1.092075E+07 -1.576735E+06 -8.356175E+04 -4.070125E+06  2.381569E-09 -1.628283E-09
         6  13 -1.073253E+07 -1.540564E+06 -1.045199E+05 -4.006083E+06 -3.296002E-09 -2.444081E-09
         6  14 -1.068860E+07 -1.526272E+06 -5.036000E+04 -4.053035E+06  8.113562E-10  2.622714E-09
         6  15 -1.072708E+07 -1.504768E+06 -3.012553E+04 -4.019469E+06 -3.565846E-09  1.973347E-10
         6  16 -1.061070E+07 -1.490418E+06 -6.978654E+04 -3.969286E+06 -5.376339E-09 -4.501666E-09
         6  17 -1.053084E+07 -1.465234E+06 -6.343567E+03 -4.009299E+06 -2.955582E-10 -5.660176E-11
         6  18 -1.053336E+07 -1.432800E+06  2.330728E+04 -3.968798E+06 -1.178165E-09  4.139109E-10
         6  19 -1.085434E+07 -1.590705E+06 -1.392432E+05 -4.042872E+06  7.228009E+04  2.693075E+04
         6  20 -1.084632E+07 -1.587307E+06 -9.437410E+04 -4.096760E+06  4.663426E+04  1.537309E+04
         6  21 -1.092075E+07 -1.576735E+06 -8.356089E+04 -4.070125E+06  2.058507E+04  4.884669E+03
         6  22 -1.073253E+07 -1.540562E+06 -1.045086E+05 -4.006082E+06  7.195753E+04  2.680929E+04
         6  23 -1.068860E+07 -1.526271E+06 -5.035541E+04 -4.053034E+06  4.647262E+04  1.531214E+04
         6  24 -1.072707E+07 -1.504768E+06 -3.012467E+04 -4.019469E+06  2.058272E+04  4.883767E+03
         6  25 -1.061069E+07 -1.490416E+06 -6.977534E+04 -3.969284E+06  7.163489E+04  2.668780E+04
         6  26 -1.053084E+07 -1.465233E+06 -6.339012E+03 -4.009299E+06  4.631093E+04  1.525118E+04
         6  27 -1.053336E+07 -1.432800E+06  2.330813E+04 -3.968798E+06  2.058037E+04  4.882865E+03
         7   1 -1.102997E+07 -1.650428E+06 -1.137166E+05 -4.122921E+06 -1.664220E+04 -2.714217E+03
         7   2 -1.102743E+07 -1.632222E+06 -1.010302E+05 -4.113251E+06 -9.527501E+03  8.598744E+02
         7   3 -1.101242E+07 -1.638180E+06 -9.604029E+04 -4.118827E+06 -1.609164E+03  2.297095E+03
         7   4 -1.070824E+07 -1.527106E+06 -2.405998E+04 -4.034968E+06 -1.636171E+04 -2.608629E+03
         7   5 -1.071415E+07 -1.512751E+06 -1.395038E+04 -4.028205E+06 -9.574305E+03  8.421036E+02
         7   6 -1.070754E+07 -1.522490E+06 -1.127074E+04 -4.036689E+06 -1.983567E+03  2.156437E+03
         7   7 -1.038641E+07 -1.403779E+06  6.558670E+04 -3.946972E+06 -1.608107E+04 -2.502979E+03
         7   8 -1.040079E+07 -1.393274E+06  7.312021E+04 -3.943120E+06 -9.621134E+03  8.243233E+02
         7   9 -1.040256E+07 -1.406794E+06  7.349012E+04 -3.954514E+06 -2.358176E+03  2.015703E+03
         7  10 -1.102997E+07 -1.650428E+06 -1.137171E+05 -4.122922E+06 -3.005070E-09  2.020764E-09
         7  11 -1.102743E+07 -1.632222E+06 -1.010304E+05 -4.113251E+06  1.383827E-09  9.650434E-10
         7  12 -1.101242E+07 -1.638180E+06 -9.604030E+04 -4.118827E+06 -9.488818E-11  1.358012E-09
         7  13 -1.070824E+07 -1.527106E+06 -2.406050E+04 -4.034968E+06  2.547290E-09 -1.096050E-10
         7  14 -1.071415E+07 -1.512751E+06 -1.395055E+04 -4.028205E+06  5.173977E-09 -2.097357E-10
         7  15 -1.070754E+07 -1.522490E+06 -1.127076E+04 -4.036689E+06 -1.778679E-09  1.926726E-11
         7  16 -1.038641E+07 -1.403779E+06  6.558619E+04 -3.946972E+06  2.323131E-09 -1.965284E-09
         7  17 -1.040079E+07 -1.393274E+06  7.312003E+04 -3.943120E+06  2.948246E-09  5.463395E-09
         7  18 -1.040256E+07 -1.406794E+06  7.349011E+04 -3.954514E+06 -3.382667E-09  1.878755E-09
         7  19 -1.102997E+07 -1.650428E+06 -1.137166E+05 -4.122921E+06  1.664220E+04  2.714217E+03
         7  20 -1.102743E+07 -1.632222E+06 -1.010302E+05 -4.113251E+06  9.527501E+03 -8.598744E+02
         7  21 -1.101242E+07 -1.638180E+06 -9.604029E+04 -4.118827E+06  1.609164E+03 -2.297095E+03
         7  22 -1.070824E+07 -1.527106E+06 -2.405998E+04 -4.034968E+06  1.636171E+04  2.608629E+03
         7  23 -1.071415E+07 -1.512751E+06 -1.395038E+04 -4.028205E+06  9.574305E+03 -8.421036E+02
         7  24 -1.070754E+07 -1.522490E+06 -1.127074E+04 -4.036689E+06  1.983567E+03 -2.156437E+03
         7  25 -1.038641E+07 -1.403779E+06  6.558670E+04 -3.946972E+06  1.608107E+04  2.502979E+03
         7  26 -1.040079E+07 -1.393274E+06  7.312021E+04 -3.943120E+06  9.621134E+03 -8.243233E+02
         7  27 -1.040256E+07 -1.406794E+06  7.349012E+04 -3.954514E+06  2.358176E+03 -2.015703E+03
         8   1 -1.075345E+07 -1.556490E+06 -2.723111E+04 -4.066025E+06  4.588825E+02  1.800251E+03
         8   2 -1.074698E+07 -1.505024E+06 -1.875764E+04 -4.016291E+06  7.871000E+03  3.216563E+03
         8   3 -1.067664E+07 -1.530584E+06 -1.795253E+04 -4.042527E+06  1.533408E+04  4.498040E+03
         8   4 -1.069612E+07 -1.534334E+06 -1.131744E+04 -4.050139E+06  2.839842E+02  1.734634E+03
         8   5 -1.072839E+07 -1.498027E+06 -1.360919E+04 -4.011339E+06  7.675448E+03  3.143207E+03
         8   6 -1.069679E+07 -1.538742E+06 -2.355259E+04 -4.048509E+06  1.511739E+04  4.416759E+03
         8   7 -1.063878E+07 -1.512179E+06  4.595913E+03 -4.034252E+06  1.090679E+02  1.669010E+03
         8   8 -1.070979E+07 -1.491031E+06 -8.460770E+03 -4.006386E+06  7.479889E+03  3.069849E+03
         8   9 -1.071693E+07 -1.546900E+06 -2.915269E+04 -4.054490E+06  1.490071E+04  4.335481E+03
         8  10 -1.075345E+07 -1.556490E+06 -2.723111E+04 -4.066025E+06  3.363730E-09 -2.226293E-10
         8  11 -1.074698E+07 -1.505024E+06 -1.875778E+04 -4.016291E+06  3.322671E-09  2.577456E-09
         8  12 -1.067664E+07 -1.530584E+06 -1.795302E+04 -4.042527E+06  2.151662E-09 -4.155862E-09
         8  13 -1.069612E+07 -1.534334E+06 -1.131744E+04 -4.050139E+06 -4.361771E-09  1.538588E-09
         8  14 -1.072839E+07 -1.498027E+06 -1.360932E+04 -4.011339E+06 -9.589424E-09  1.300316E-09
         8  15 -1.069679E+07 -1.538742E+06 -2.355306E+04 -4.048509E+06  3.689700E-09 -5.726295E-10
         8  16 -1.063878E+07 -1.512179E+06  4.595908E+03 -4.034252E+06 -2.004436E-09  2.078443E-09
         8  17 -1.070979E+07 -1.491031E+06 -8.460896E+03 -4.006386E+06  1.626902E-09 -1.330768E-10
         8  18 -1.071693E+07 -1.546900E+06 -2.915315E+04 -4.054490E+06 -5.515316E-09 -2.669296E-10
         8  19 -1.075345E+07 -1.556490E+06 -2.723111E+04 -4.066025E+06 -4.588825E+02 -1.800251E+03
         8  20 -1.074698E+07 -1.505024E+06 -1.875764E+04 -4.016291E+06 -7.871000E+03 -3.216563E+03
         8  21 -1.067664E+07 -1.530584E+06 -1.795253E+04 -4.042527E+06 -1.533408E+04 -4.498040E+03
         8  22 -1.069612E+07 -1.534334E+06 -1.131744E+04 -4.050139E+06 -2.839842E+02 -1.734634E+03
         8  23 -1.072839E+07 -1.498027E+06 -1.360919E+04 -4.011339E+06 -7.675448E+03 -3.143207E+03
         8  24 -1.069679E+07 -1.538742E+06 -2.355259E+04 -4.048509E+06 -1.511739E+04 -4.416759E+03
         8  25 -1.063878E+07 -1.512179E+06  4.595913E+03 -4.034252E+06 -1.090679E+02 -1.669010E+03
         8  26 -1.070979E+07 -1.491031E+06 -8.460770E+03 -4.006386E+06 -7.479889E+03 -3.069849E+03
         8  27 -1.071693E+07 -1.546900E+06 -2.915269E+04 -4.054490E+06 -1.490071E+04 -4.335481E+03
         9   1 -1.041714E+07 -1.414085E+06  5.136938E+04 -3.963390E+06  2.029517E+04  4.983320E+03
         9   2 -1.040952E+07 -1.387729E+06  3.509805E+04 -3.944231E+06  4.595637E+04  1.299550E+04
         9   3 -1.040014E+07 -1.434895E+06 -1.367649E+04 -3.938534E+06  7.085263E+04  2.304365E+04
         9   4 -1.070846E+07 -1.523001E+06 -2.928890E+04 -4.040242E+06  1.991032E+04  4.838881E+03
         9   5 -1.071194E+07 -1.503670E+06 -4.906126E+04 -4.026997E+06  4.587507E+04  1.296471E+04
         9   6 -1.071372E+07 -1.557939E+06 -1.015935E+05 -4.027213E+06  7.107419E+04  2.312651E+04
         9   7 -1.099970E+07 -1.631913E+06 -1.099551E+05 -4.117061E+06  1.952566E+04  4.694514E+03
         9   8 -1.101427E+07 -1.619605E+06 -1.332292E+05 -4.109726E+06  4.579382E+04  1.293394E+04
         9   9 -1.102722E+07 -1.680975E+06 -1.895198E+05 -4.115850E+06  7.129562E+04  2.320931E+04
         9  10 -1.041714E+07 -1.414085E+06  5.136854E+04 -3.963390E+06  5.635282E-09 -9.002412E-10
         9  11 -1.040952E+07 -1.387730E+06  3.509369E+04 -3.944232E+06 -2.612535E-09  2.217527E-10
         9  12 -1.040014E+07 -1.434897E+06 -1.368713E+04 -3.938536E+06  6.208397E-10  8.358181E-09
         9  13 -1.070846E+07 -1.523001E+06 -2.928970E+04 -4.040242E+06  3.508567E-10 -8.681642E-10
         9  14 -1.071194E+07 -1.503671E+06 -4.906562E+04 -4.026997E+06 -3.008704E-09 -1.182462E-09
         9  15 -1.071373E+07 -1.557941E+06 -1.016042E+05 -4.027214E+06 -3.620846E-09  2.165282E-09
         9  16 -1.099970E+07 -1.631913E+06 -1.099558E+05 -4.117061E+06 -4.509352E-09  1.445754E-09
         9  17 -1.101427E+07 -1.619606E+06 -1.332335E+05 -4.109726E+06  1.145958E-09  5.475238E-09
         9  18 -1.102722E+07 -1.680977E+06 -1.895305E+05 -4.115851E+06 -4.441075E-10  1.651495E-09
         9  19 -1.041714E+07 -1.414085E+06  5.136938E+04 -3.963390E+06 -2.029517E+04 -4.983320E+03
         9  20 -1.040952E+07 -1.387729E+06  3.509805E+04 -3.944231E+06 -4.595637E+04 -1.299550E+04
         9  21 -1.040014E+07 -1.434895E+06 -1.367649E+04 -3.938534E+06 -7.085263E+04 -2.304365E+04
         9  22 -1.070846E+07 -1.523001E+06 -2.928890E+04 -4.040242E+06 -1.991032E+04 -4.838881E+03
         9  23 -1.071194E+07 -1.503670E+06 -4.906126E+04 -4.026997E+06 -4.587507E+04 -1.296471E+04
         9  24 -1.071372E+07 -1.557939E+06 -1.015935E+05 -4.027213E+06 -7.107419E+04 -2.312651E+04
         9  25 -1.099970E+07 -1.631913E+06 -1.099551E+05 -4.117061E+06 -1.952566E+04 -4.694514E+03
         9  26 -1.101427E+07 -1.619605E+06 -1.332292E+05 -4.109726E+06 -4.579382E+04 -1.293394E+04
         9  27 -1.102722E+07 -1.680975E+06 -1.895198E+05 -4.115850E+06 -7.129562E+04 -2.320931E+04
        10   1 -1.051205E+07 -1.426156E+06 -6.536310E+04 -3.979656E+06  8.971992E+04  3.073365E+04
        10   2 -1.047599E+07 -1.400972E+06 -1.576002E+05 -4.003749E+06  2.012820E+05  7.337777E+04
        10   3 -1.063706E+07 -1.657177E+06 -4.262645E+05 -3.878876E+06  3.124281E+05  1.170894E+05
        10   4 -1.074295E+07 -1.501726E+06 -1.270236E+05 -4.029634E+06  8.969055E+04  3.072478E+04
        10   5 -1.066190E+07 -1.477836E+06 -2.104723E+05 -4.060316E+06  2.013859E+05  7.341455E+04
        10   6 -1.077805E+07 -1.735421E+06 -4.704907E+05 -3.942017E+06  3.126743E+05  1.171669E+05
        10   7 -1.097380E+07 -1.577298E+06 -1.886886E+05 -4.079596E+06  8.966118E+04  3.071591E+04
        10   8 -1.084778E+07 -1.554696E+06 -2.633478E+05 -4.116867E+06  2.014898E+05  7.345131E+04
        10   9 -1.091902E+07 -1.813656E+06 -5.147189E+05 -4.005143E+06  3.129205E+05  1.172444E+05
        10  10 -1.051206E+07 -1.426159E+06 -6.538034E+04 -3.979658E+06  2.236977E-09  7.597293E-09
        10  11 -1.047604E+07 -1.400989E+06 -1.576881E+05 -4.003761E+06  2.641629E-09 -2.148875E-09
        10  12 -1.063717E+07 -1.657219E+06 -4.264778E+05 -3.878906E+06 -6.472131E-09  3.069913E-10
        10  13 -1.074296E+07 -1.501730E+06 -1.270408E+05 -4.029636E+06 -7.209592E-11  8.867117E-10
        10  14 -1.066195E+07 -1.477853E+06 -2.105604E+05 -4.060328E+06  2.385727E-09 -4.331312E-10
        10  15 -1.077816E+07 -1.735463E+06 -4.707044E+05 -3.942047E+06 -3.227864E-09  2.218071E-10
        10  16 -1.097381E+07 -1.577301E+06 -1.887059E+05 -4.079599E+06 -1.965380E-09 -1.985052E-09
        10  17 -1.084783E+07 -1.554713E+06 -2.634360E+05 -4.116879E+06  2.008891E-09  2.444781E-09
        10  18 -1.091913E+07 -1.813697E+06 -5.149330E+05 -4.005173E+06  4.790889E-09  1.954420E-09
        10  19 -1.051205E+07 -1.426156E+06 -6.536310E+04 -3.979656E+06 -8.971992E+04 -3.073365E+04
        10  20 -1.047599E+07 -1.400972E+06 -1.576002E+05 -4.003749E+06 -2.012820E+05 -7.337777E+04
        10  21 -1.063706E+07 -1.657177E+06 -4.262645E+05 -3.878876E+06 -3.124281E+05 -1.170894E+05
        10  22 -1.074295E+07 -1.501726E+06 -1.270236E+05 -4.029634E+06 -8.969055E+04 -3.072478E+04
        10  23 -1.066190E+07 -1.477836E+06 -2.104723E+05 -4.060316E+06 -2.013859E+05 -7.341455E+04
        10  24 -1.077805E+07 -1.735421E+06 -4.704907E+05 -3.942017E+06 -3.126743E+05 -1.171669E+05
        10  25 -1.097380E+07 -1.577298E+06 -1.886886E+05 -4.079596E+06 -8.966118E+04 -3.071591E+04
        10  26 -1.084778E+07 -1.554696E+06 -2.633478E+05 -4.116867E+06 -2.014898E+05 -7.345131E+04
        10  27 -1.091902E+07 -1.813656E+06 -5.147189E+05 -4.005143E+06 -3.129205E+05 -1.172444E+05
        11   1 -1.095397E+07 -1.597204E+06 -6.167431E+05 -4.201379E+06  3.970191E+05  1.510569E+05
        11   2 -1.070809E+07 -1.206369E+06 -9.552124E+05 -4.137077E+06  8.946426E+05  3.411154E+05
        11   3 -1.142649E+07 -2.995700E+06 -2.281805E+06 -3.429785E+06  1.393688E+06  5.274743E+05
        11   4 -1.084870E+07 -1.474559E+06 -5.707326E+05 -4.088936E+06  3.976291E+05  1.513547E+05
        11   5 -1.048184E+07 -1.162641E+06 -9.009142E+05 -4.118945E+06  8.948483E+05  3.411145E+05
        11   6 -1.107896E+07 -3.030369E+06 -2.218595E+06 -3.505971E+06  1.393601E+06  5.269618E+05
        11   7 -1.074340E+07 -1.351866E+06 -5.247202E+05 -3.976467E+06  3.982392E+05  1.516528E+05
        11   8 -1.025553E+07 -1.118914E+06 -8.466185E+05 -4.100811E+06  8.950540E+05  3.411136E+05
        11   9 -1.073124E+07 -3.064963E+06 -2.155371E+06 -3.582210E+06  1.393514E+06  5.264495E+05
        11  10 -1.095414E+07 -1.597272E+06 -6.170892E+05 -4.201428E+06 -9.242952E-10  1.174848E-10
        11  11 -1.070900E+07 -1.206717E+06 -9.569704E+05 -4.137326E+06 -1.460939E-09  4.156236E-10
        11  12 -1.142869E+07 -2.996538E+06 -2.286063E+06 -3.430385E+06  3.696507E-10 -1.035007E-09
        11  13 -1.084888E+07 -1.474628E+06 -5.710797E+05 -4.088985E+06  1.601086E-09  2.059214E-09
        11  14 -1.048274E+07 -1.162989E+06 -9.026724E+05 -4.119193E+06  1.515706E-09  3.145189E-10
        11  15 -1.108115E+07 -3.031206E+06 -2.222850E+06 -3.506570E+06 -1.276779E-09 -3.453545E-10
        11  16 -1.074358E+07 -1.351935E+06 -5.250684E+05 -3.976516E+06 -2.983434E-10  2.408711E-09
        11  17 -1.025644E+07 -1.119261E+06 -8.483768E+05 -4.101059E+06 -1.235017E-09 -1.665464E-10
        11  18 -1.073343E+07 -3.065799E+06 -2.159623E+06 -3.582809E+06  4.768901E-10  8.100592E-11
        11  19 -1.095397E+07 -1.597204E+06 -6.167431E+05 -4.201379E+06 -3.970191E+05 -1.510569E+05
        11  20 -1.070809E+07 -1.206369E+06 -9.552124E+05 -4.137077E+06 -8.946426E+05 -3.411154E+05
        11  21 -1.142649E+07 -2.995700E+06 -2.281805E+06 -3.429785E+06 -1.393688E+06 -5.274743E+05
        11  22 -1.084870E+07 -1.474559E+06 -5.707326E+05 -4.088936E+06 -3.976291E+05 -1.513547E+05
        11  23 -1.048184E+07 -1.162641E+06 -9.009142E+05 -4.118945E+06 -8.948483E+05 -3.411145E+05
        11  24 -1.107896E+07 -3.030369E+06 -2.218595E+06 -3.505971E+06 -1.393601E+06 -5.269618E+05
        11  25 -1.074340E+07 -1.351866E+06 -5.247202E+05 -3.976467E+06 -3.982392E+05 -1.516528E+05
        11  26 -1.025553E+07 -1.118914E+06 -8.466185E+05 -4.100811E+06 -8.950540E+05 -3.411136E+05
        11  27 -1.073124E+07 -3.064963E+06 -2.155371E+06 -3.582210E+06 -1.393514E+06 -5.264495E+05
        12   1  1.672149E+04 -1.196299E+05  2.465824E+04 -2.915036E+02  2.990371E+02 -7.799021E+02
        12   2  1.459135E+04 -1.212725E+05  2.598553E+04  1.765497E+02  3.075040E+02 -5.880669E+03
        12   3  2.123317E+04 -1.198331E+05  3.287220E+04  1.083198E+02  2.892811E+02 -1.098154E+04
        12   4  6.502447E+02 -1.839154E+05  8.598279E+03 -1.200706E+02  2.990389E+02 -7.813880E+02
        12   5 -1.454309E+03 -1.854560E+05  9.951378E+03  1.496510E+02  3.075061E+02 -5.879773E+03