
 stresses (elem, integ.pnt.,sxx,syy,szz,sxy,sxz,syz) for set ELALL and time  0.2500000E+00

         1   1  7.642453E+05  2.803037E+06  7.264377E+05 -5.099034E+05  3.630163E+04  2.680575E+05
         1   2  6.177857E+05  2.391812E+06  4.936920E+05 -4.660865E+05  1.200377E+05  1.214059E+05
         1   3  5.104536E+05  2.009906E+06  3.660282E+05 -4.892829E+05  1.388484E+05 -2.512264E+04
         1   4  3.117872E+04 -1.740718E+05  3.350793E+04 -4.868520E+05  3.654654E+04  2.207737E+04
         1   5  9.615616E+03 -1.764361E+05  1.773891E+04 -4.533641E+05  1.202180E+05  1.317129E+04
         1   6  3.407813E+03 -1.734130E+05  1.167080E+04 -4.868879E+05  1.388451E+05  4.283256E+03
         1   7 -7.024793E+05 -3.142895E+06 -6.597938E+05 -4.639068E+05  3.677420E+04 -2.227355E+05
         1   8 -5.989253E+05 -2.738283E+06 -4.584478E+05 -4.406915E+05  1.203943E+05 -9.462848E+04
         1   9 -5.038796E+05 -2.352013E+06 -3.428160E+05 -4.844981E+05  1.388420E+05  3.358959E+04
         1  10  7.642247E+05  2.802959E+06  7.263008E+05 -5.099113E+05  8.775207E-10  2.869295E-09
         1  11  6.177663E+05  2.391792E+06  4.936373E+05 -4.660982E+05 -9.461115E-10  3.293000E-09
         1  12  5.104328E+05  2.009900E+06  3.659908E+05 -4.892801E+05 -1.168731E-09  4.286892E-09
         1  13  3.117715E+04 -1.740727E+05  3.350450E+04 -4.868527E+05  3.492308E-10 -4.299081E-12
         1  14  9.600050E+03 -1.764402E+05  1.771142E+04 -4.533653E+05  1.981920E-09 -5.475908E-12
         1  15  3.387109E+03 -1.734182E+05  1.163454E+04 -4.868884E+05  2.568577E-09  1.252762E-12
         1  16 -7.024941E+05 -3.142948E+06 -6.598900E+05 -4.639002E+05  8.835486E-10 -2.858198E-09
         1  17 -5.989433E+05 -2.738296E+06 -4.584919E+05 -4.406823E+05  1.992581E-09 -3.321402E-09
         1  18 -5.039006E+05 -2.352019E+06 -3.428544E+05 -4.845018E+05  2.215351E-09 -4.250266E-09
         1  19  7.642453E+05  2.803037E+06  7.264377E+05 -5.099034E+05 -3.630163E+04 -2.680575E+05
         1  20  6.177857E+05  2.391812E+06  4.936920E+05 -4.660865E+05 -1.200377E+05 -1.214059E+05
         1  21  5.104536E+05  2.009906E+06  3.660282E+05 -4.892829E+05 -1.388484E+05  2.512264E+04
         1  22  3.117872E+04 -1.740718E+05  3.350793E+04 -4.868520E+05 -3.654654E+04 -2.207737E+04
         1  23  9.615616E+03 -1.764361E+05  1.773891E+04 -4.533641E+05 -1.202180E+05 -1.317129E+04
         1  24  3.407813E+03 -1.734130E+05  1.167080E+04 -4.868879E+05 -1.388451E+05 -4.283256E+03
         1  25 -7.024793E+05 -3.142895E+06 -6.597938E+05 -4.639068E+05 -3.677420E+04  2.227355E+05
         1  26 -5.989253E+05 -2.738283E+06 -4.584478E+05 -4.406915E+05 -1.203943E+05  9.462848E+04
         1  27 -5.038796E+05 -2.352013E+06 -3.428160E+05 -4.844981E+05 -1.388420E+05 -3.358959E+04
         2   1  4.501267E+05  1.756697E+06  3.162321E+05 -4.916508E+05  1.283144E+05 -2.703806E+04
         2   2  3.552693E+05  1.358375E+06  2.413137E+05 -4.536920E+05  1.105638E+05 -4.829302E+04
         2   3  2.666939E+05  9.645124E+05  1.817710E+05 -4.873970E+05  8.519405E+04 -6.956446E+04
         2   4  3.164727E+03 -1.740843E+05  1.036738E+04 -4.879237E+05  1.282977E+05  2.552170E+03
         2   5  2.673687E+03 -1.746357E+05  1.022762E+04 -4.520855E+05  1.104975E+05 -2.571602E+03
         2   6  5.680701E+03 -1.736757E+05  1.428224E+04 -4.879214E+05  8.506842E+04 -7.724577E+03
         2   7 -4.439821E+05 -2.101160E+06 -2.955884E+05 -4.842057E+05  1.282814E+05  3.205393E+04
         2   8 -3.500325E+05 -1.705288E+06 -2.208981E+05 -4.504812E+05  1.104313E+05  4.304158E+04
         2   9 -2.553908E+05 -1.310553E+06 -1.532152E+05 -4.884436E+05  8.494252E+04  5.400673E+04
         2  10  4.501089E+05  1.756692E+06  3.161998E+05 -4.916480E+05  1.553203E-09  5.476553E-08
         2  11  3.552555E+05  1.358370E+06  2.412863E+05 -4.536877E+05  1.036914E-08 -1.057572E-08
         2  12  2.666849E+05  9.645052E+05  1.817483E+05 -4.873922E+05  1.374261E-08 -7.700186E-08
         2  13  3.147051E+03 -1.740888E+05  1.033644E+04 -4.879240E+05 -3.657370E-09  5.813466E-11
         2  14  2.660576E+03 -1.746390E+05  1.020466E+04 -4.520852E+05 -1.273896E-08  6.234645E-11
         2  15  5.672916E+03 -1.736777E+05  1.426854E+04 -4.879208E+05 -2.395489E-08 -1.110017E-11
         2  16 -4.440000E+05 -2.101165E+06 -2.956212E+05 -4.842090E+05  6.276916E-10 -5.455572E-08
         2  17 -3.500461E+05 -1.705293E+06 -2.209245E+05 -4.504850E+05  4.903990E-09  1.054975E-08
         2  18 -2.553993E+05 -1.310558E+06 -1.532342E+05 -4.884473E+05  1.107607E-08  7.692800E-08
         2  19  4.501267E+05  1.756697E+06  3.162321E+05 -4.916508E+05 -1.283144E+05  2.703806E+04
         2  20  3.552693E+05  1.358375E+06  2.413137E+05 -4.536920E+05 -1.105638E+05  4.829302E+04
         2  21  2.666939E+05  9.645124E+05  1.817710E+05 -4.873970E+05 -8.519405E+04  6.956446E+04
         2  22  3.164727E+03 -1.740843E+05  1.036738E+04 -4.879237E+05 -1.282977E+05 -2.552170E+03
         2  23  2.673687E+03 -1.746357E+05  1.022762E+04 -4.520855E+05 -1.104975E+05  2.571602E+03
         2  24  5.680701E+03 -1.736757E+05  1.428224E+04 -4.879214E+05 -8.506842E+04  7.724577E+03
         2  25 -4.439821E+05 -2.101160E+06 -2.955884E+05 -4.842057E+05 -1.282814E+05 -3.205393E+04
         2  26 -3.500325E+05 -1.705288E+06 -2.208981E+05 -4.504812E+05 -1.104313E+05 -4.304158E+04
         2  27 -2.553908E+05 -1.310553E+06 -1.532152E+05 -4.884436E+05 -8.494252E+04 -5.400673E+04
         3   1  2.104901E+05  7.173989E+05  1.470447E+05 -4.893218E+05  6.786878E+04 -7.202618E+04
         3   2  1.320420E+05  3.172647E+05  1.015371E+05 -4.338735E+05  3.852315E+04 -8.837609E+04
         3   3  8.029959E+04 -7.413375E+04  7.328076E+04 -4.505926E+05  8.930164E+03 -1.047260E+05
         3   4  6.823112E+03 -1.720341E+05  1.784045E+04 -4.880371E+05  6.773177E+04 -1.017532E+04
         3   5  1.932833E+04 -1.762017E+05  3.086761E+04 -4.519077E+05  3.837831E+04 -2.601563E+04
         3   6  5.845931E+04 -1.718969E+05  6.077973E+04 -4.879363E+05  8.778447E+03 -4.186479E+04
         3   7 -1.968782E+05 -1.060662E+06 -1.113625E+05 -4.867536E+05  6.759488E+04  5.159072E+04
         3   8 -9.339306E+04 -6.694130E+05 -3.979072E+04 -4.699268E+05  3.822976E+04  3.629740E+04
         3   9  3.662603E+04 -2.696388E+05  4.829428E+04 -5.252739E+05  8.619149E+03  2.098696E+04
         3  10  2.104838E+05  7.173921E+05  1.470264E+05 -4.893178E+05  1.286173E-08  8.616412E-08
         3  11  1.320383E+05  3.172560E+05  1.015196E+05 -4.338708E+05  9.195250E-09  1.525888E-08
         3  12  8.029657E+04 -7.414555E+04  7.326000E+04 -4.505918E+05  2.008591E-09 -5.347880E-08
         3  13  6.818160E+03 -1.720354E+05  1.783164E+04 -4.880365E+05 -2.361049E-08 -5.563148E-11
         3  14  1.932657E+04 -1.762028E+05  3.086357E+04 -4.519069E+05 -1.274781E-08 -7.958624E-11
         3  15  5.845876E+04 -1.718989E+05  6.077630E+04 -4.879360E+05 -2.628566E-09  1.236575E-11
         3  16 -1.968838E+05 -1.060666E+06 -1.113761E+05 -4.867564E+05  1.260519E-08 -8.608896E-08
         3  17 -9.339498E+04 -6.694148E+05 -3.979595E+04 -4.699279E+05  7.423787E-09 -1.522456E-08
         3  18  3.662583E+04 -2.696393E+05  4.829331E+04 -5.252741E+05  1.147135E-09  5.351522E-08
         3  19  2.104901E+05  7.173989E+05  1.470447E+05 -4.893218E+05 -6.786878E+04  7.202618E+04
         3  20  1.320420E+05  3.172647E+05  1.015371E+05 -4.338735E+05 -3.852315E+04  8.837609E+04
         3  21  8.029959E+04 -7.413375E+04  7.328076E+04 -4.505926E+05 -8.930164E+03  1.047260E+05
         3  22  6.823112E+03 -1.720341E+05  1.784045E+04 -4.880371E+05 -6.773177E+04  1.017532E+04
         3  23  1.932833E+04 -1.762017E+05  3.086761E+04 -4.519077E+05 -3.837831E+04  2.601563E+04
         3  24  5.845931E+04 -1.718969E+05  6.077973E+04 -4.879363E+05 -8.778447E+03  4.186479E+04
         3  25 -1.968782E+05 -1.060662E+06 -1.113625E+05 -4.867536E+05 -6.759488E+04 -5.159072E+04
         3  26 -9.339306E+04 -6.694130E+05 -3.979072E+04 -4.699268E+05 -3.822976E+04 -3.629740E+04
         3  27  3.662603E+04 -2.696388E+05  4.829428E+04 -5.252739E+05 -8.619149E+03 -2.098696E+04
         4   1 -1.898788E+06 -5.619469E+05 -3.773681E+05 -6.506420E+05 -2.235037E+05 -8.309165E+04
         4   2 -1.829514E+06 -2.348353E+05 -1.671795E+05 -7.099295E+05 -1.440141E+05 -5.203719E+04
         4   3 -1.892681E+06 -2.629564E+05 -1.115886E+05 -6.888881E+05 -6.394160E+04 -2.253439E+04
         4   4 -1.836060E+06 -4.969402E+05 -3.518767E+05 -5.910973E+05 -2.230560E+05 -8.294256E+04
         4   5 -1.752274E+06 -1.949374E+05 -1.440072E+05 -6.778620E+05 -1.439446E+05 -5.201430E+04
         4   6 -1.800836E+06 -2.480697E+05 -9.042185E+04 -6.843045E+05 -6.424805E+04 -2.264667E+04
         4   7 -1.773324E+06 -4.319208E+05 -3.263851E+05 -5.315448E+05 -2.226082E+05 -8.279337E+04
         4   8 -1.675028E+06 -1.550375E+05 -1.208355E+05 -6.457903E+05 -1.438750E+05 -5.199139E+04
         4   9 -1.708983E+06 -2.331830E+05 -6.925532E+04 -6.797210E+05 -6.455455E+04 -2.275895E+04
         4  10 -1.898843E+06 -5.619678E+05 -3.774753E+05 -6.506570E+05  5.522036E-11  3.050504E-11
         4  11 -1.829537E+06 -2.348438E+05 -1.672237E+05 -7.099356E+05 -2.486418E-09  1.791462E-11
         4  12 -1.892685E+06 -2.629581E+05 -1.115973E+05 -6.888893E+05  1.122021E-09  6.730232E-10
         4  13 -1.836115E+06 -4.969610E+05 -3.519835E+05 -5.911122E+05  1.043254E-09 -2.711862E-12
         4  14 -1.752297E+06 -1.949459E+05 -1.440514E+05 -6.778680E+05 -2.728917E-09 -3.666121E-12
         4  15 -1.800841E+06 -2.480714E+05 -9.043060E+04 -6.843057E+05 -6.942943E-10  2.199213E-10
         4  16 -1.773379E+06 -4.319416E+05 -3.264915E+05 -5.315596E+05  2.187697E-09 -3.273750E-11
         4  17 -1.675051E+06 -1.550460E+05 -1.208797E+05 -6.457963E+05  4.495133E-11 -1.567649E-10
         4  18 -1.708987E+06 -2.331846E+05 -6.926416E+04 -6.797222E+05 -3.146984E-10  2.048506E-10
         4  19 -1.898788E+06 -5.619469E+05 -3.773681E+05 -6.506420E+05  2.235037E+05  8.309165E+04
         4  20 -1.829514E+06 -2.348353E+05 -1.671795E+05 -7.099295E+05  1.440141E+05  5.203719E+04
         4  21 -1.892681E+06 -2.629564E+05 -1.115886E+05 -6.888881E+05  6.394160E+04  2.253439E+04
         4  22 -1.836060E+06 -4.969402E+05 -3.518767E+05 -5.910973E+05  2.230560E+05  8.294256E+04
         4  23 -1.752274E+06 -1.949374E+05 -1.440072E+05 -6.778620E+05  1.439446E+05  5.201430E+04
         4  24 -1.800836E+06 -2.480697E+05 -9.042185E+04 -6.843045E+05  6.424805E+04  2.264667E+04
         4  25 -1.773324E+06 -4.319208E+05 -3.263851E+05 -5.315448E+05  2.226082E+05  8.279337E+04
         4  26 -1.675028E+06 -1.550375E+05 -1.208355E+05 -6.457903E+05  1.438750E+05  5.199139E+04
         4  27 -1.708983E+06 -2.331830E+05 -6.925532E+04 -6.797210E+05  6.455455E+04  2.275895E+04
         5   1 -1.830830E+06 -3.103617E+05 -8.690143E+04 -6.790497E+05 -5.053317E+04 -1.798549E+04
         5   2 -1.816985E+06 -2.568036E+05 -4.397797E+04 -6.802711E+05 -3.245649E+04 -1.138133E+04
         5   3 -1.814143E+06 -2.623410E+05 -2.794831E+04 -6.803490E+05 -1.429464E+04 -5.002940E+03
         5   4 -1.788922E+06 -2.889842E+05 -7.436664E+04 -6.619305E+05 -5.054389E+04 -1.799008E+04
         5   5 -1.780936E+06 -2.418502E+05 -3.387853E+04 -6.690834E+05 -3.252178E+04 -1.140588E+04
         5   6 -1.783941E+06 -2.537988E+05 -2.023933E+04 -6.750931E+05 -1.441471E+04 -5.047827E+03
         5   7 -1.747011E+06 -2.676061E+05 -6.183202E+04 -6.448101E+05 -5.055461E+04 -1.799467E+04
         5   8 -1.744885E+06 -2.268966E+05 -2.377922E+04 -6.578952E+05 -3.258708E+04 -1.143043E+04
         5   9 -1.753737E+06 -2.452567E+05 -1.253043E+04 -6.698371E+05 -1.453479E+04 -5.092715E+03
         5  10 -1.830833E+06 -3.103628E+05 -8.690686E+04 -6.790504E+05  1.855447E-09 -7.287563E-11
         5  11 -1.816987E+06 -2.568040E+05 -4.398020E+04 -6.802714E+05 -1.370577E-09 -4.787022E-10
         5  12 -1.814143E+06 -2.623411E+05 -2.794874E+04 -6.803490E+05 -4.531632E-10 -1.003394E-09
         5  13 -1.788924E+06 -2.889853E+05 -7.437207E+04 -6.619312E+05 -2.141353E-09  2.579468E-11
         5  14 -1.780937E+06 -2.418506E+05 -3.388077E+04 -6.690837E+05 -1.396700E-09 -8.305489E-10
         5  15 -1.783941E+06 -2.537989E+05 -2.023977E+04 -6.750932E+05 -2.269623E-10 -6.584665E-10
         5  16 -1.747014E+06 -2.676071E+05 -6.183745E+04 -6.448108E+05 -3.916478E-09  3.199556E-11
         5  17 -1.744887E+06 -2.268970E+05 -2.378147E+04 -6.578955E+05 -1.449018E-09 -6.898507E-10
         5  18 -1.753737E+06 -2.452568E+05 -1.253088E+04 -6.698372E+05 -3.797926E-10 -1.095415E-09
         5  19 -1.830830E+06 -3.103617E+05 -8.690143E+04 -6.790497E+05  5.053317E+04  1.798549E+04
         5  20 -1.816985E+06 -2.568036E+05 -4.397797E+04 -6.802711E+05  3.245649E+04  1.138133E+04
         5  21 -1.814143E+06 -2.623410E+05 -2.794831E+04 -6.803490E+05  1.429464E+04  5.002940E+03
         5  22 -1.788922E+06 -2.889842E+05 -7.436664E+04 -6.619305E+05  5.054389E+04  1.799008E+04
         5  23 -1.780936E+06 -2.418502E+05 -3.387853E+04 -6.690834E+05  3.252178E+04  1.140588E+04
         5  24 -1.783941E+06 -2.537988E+05 -2.023933E+04 -6.750931E+05  1.441471E+04  5.047827E+03
         5  25 -1.747011E+06 -2.676061E+05 -6.183202E+04 -6.448101E+05  5.055461E+04  1.799467E+04
         5  26 -1.744885E+06 -2.268966E+05 -2.377922E+04 -6.578952E+05  3.258708E+04  1.143043E+04
         5  27 -1.753737E+06 -2.452567E+05 -1.253043E+04 -6.698371E+05  1.453479E+04  5.092715E+03
         6   1 -1.775168E+06 -2.576292E+05 -1.433177E+04 -6.707746E+05 -1.124323E+04 -4.139466E+03
         6   2 -1.769558E+06 -2.427884E+05 -3.686813E+03 -6.638087E+05 -7.017552E+03 -2.937063E+03
         6   3 -1.757037E+06 -2.449992E+05  2.000320E+03 -6.667063E+05 -2.786804E+03 -1.748100E+03
         6   4 -1.782083E+06 -2.595170E+05 -1.610663E+04 -6.719019E+05 -1.132362E+04 -4.169588E+03
         6   5 -1.785190E+06 -2.485272E+05 -7.920982E+03 -6.678913E+05 -7.101298E+03 -2.968432E+03
         6   6 -1.781384E+06 -2.545884E+05 -4.690442E+03 -6.737442E+05 -2.873971E+03 -1.780749E+03
         6   7 -1.788999E+06 -2.614049E+05 -1.788149E+04 -6.730293E+05 -1.140401E+04 -4.199711E+03
         6   8 -1.800821E+06 -2.542660E+05 -1.215518E+04 -6.719739E+05 -7.185042E+03 -2.999800E+03
         6   9 -1.805731E+06 -2.641776E+05 -1.138127E+04 -6.807819E+05 -2.961135E+03 -1.813396E+03
         6  10 -1.775168E+06 -2.576293E+05 -1.433204E+04 -6.707746E+05 -3.000211E-10  2.260482E-10
         6  11 -1.769558E+06 -2.427884E+05 -3.686922E+03 -6.638087E+05 -1.791667E-10  7.816196E-10
         6  12 -1.757037E+06 -2.449992E+05  2.000299E+03 -6.667063E+05  1.489763E-09  6.123381E-10
         6  13 -1.782084E+06 -2.595171E+05 -1.610690E+04 -6.719020E+05  3.304749E-12  5.239701E-11
         6  14 -1.785190E+06 -2.485272E+05 -7.921094E+03 -6.678913E+05  5.928047E-10  8.462603E-10
         6  15 -1.781384E+06 -2.545884E+05 -4.690464E+03 -6.737442E+05  1.630864E-09  5.248306E-10
         6  16 -1.788999E+06 -2.614049E+05 -1.788176E+04 -6.730294E+05  1.065902E-09 -2.475676E-10
         6  17 -1.800821E+06 -2.542660E+05 -1.215530E+04 -6.719739E+05  9.771913E-10  6.939896E-10
         6  18 -1.805731E+06 -2.641777E+05 -1.138129E+04 -6.807819E+05  5.809285E-10 -8.390753E-11
         6  19 -1.775168E+06 -2.576292E+05 -1.433177E+04 -6.707746E+05  1.124323E+04  4.139466E+03
         6  20 -1.769558E+06 -2.427884E+05 -3.686813E+03 -6.638087E+05  7.017552E+03  2.937063E+03
         6  21 -1.757037E+06 -2.449992E+05  2.000320E+03 -6.667063E+05  2.786804E+03  1.748100E+03
         6  22 -1.782083E+06 -2.595170E+05 -1.610663E+04 -6.719019E+05  1.132362E+04  4.169588E+03
         6  23 -1.785190E+06 -2.485272E+05 -7.920982E+03 -6.678913E+05  7.101298E+03  2.968432E+03
         6  24 -1.781384E+06 -2.545884E+05 -4.690442E+03 -6.737442E+05  2.873971E+03  1.780749E+03
         6  25 -1.788999E+06 -2.614049E+05 -1.788149E+04 -6.730293E+05  1.140401E+04  4.199711E+03
         6  26 -1.800821E+06 -2.542660E+05 -1.215518E+04 -6.719739E+05  7.185042E+03  2.999800E+03
         6  27 -1.805731E+06 -2.641776E+05 -1.138127E+04 -6.807819E+05  2.961135E+03  1.813396E+03
         7   1 -1.723441E+06 -2.334116E+05  1.207216E+04 -6.574378E+05 -2.009864E+03 -1.697100E+03
         7   2 -1.719481E+06 -2.248323E+05  1.585103E+04 -6.501299E+05 -7.900874E+02 -1.626082E+03
         7   3 -1.706946E+06 -2.264649E+05  1.852173E+04 -6.530208E+05  4.128916E+02 -1.509889E+03
         7   4 -1.781308E+06 -2.551409E+05 -3.729401E+03 -6.730436E+05 -2.098699E+03 -1.730384E+03
         7   5 -1.785551E+06 -2.497365E+05 -2.170652E+03 -6.680553E+05 -8.678899E+02 -1.655245E+03
         7   6 -1.781223E+06 -2.545463E+05 -1.728933E+03 -6.732657E+05  3.461072E+02 -1.534933E+03
         7   7 -1.839170E+06 -2.768701E+05 -1.953123E+04 -6.886481E+05 -2.187525E+03 -1.763664E+03
         7   8 -1.851617E+06 -2.746405E+05 -2.019272E+04 -6.859789E+05 -9.456832E+02 -1.684404E+03
         7   9 -1.855494E+06 -2.826273E+05 -2.198011E+04 -6.935084E+05  2.793316E+02 -1.559974E+03
         7  10 -1.723441E+06 -2.334116E+05  1.207215E+04 -6.574378E+05  1.453873E-10  2.033536E-10
         7  11 -1.719481E+06 -2.248323E+05  1.585103E+04 -6.501299E+05 -1.070920E-09 -7.933172E-10
         7  12 -1.706946E+06 -2.264649E+05  1.852173E+04 -6.530208E+05  2.691663E-10  6.349416E-10
         7  13 -1.781308E+06 -2.551409E+05 -3.729415E+03 -6.730436E+05 -1.082719E-09 -2.959247E-10
         7  14 -1.785551E+06 -2.497365E+05 -2.170658E+03 -6.680553E+05 -8.472688E-10 -3.111164E-10
         7  15 -1.781223E+06 -2.545463E+05 -1.728938E+03 -6.732657E+05 -3.255046E-10  6.045195E-10
         7  16 -1.839170E+06 -2.768701E+05 -1.953124E+04 -6.886481E+05  2.740904E-10 -5.448809E-10
         7  17 -1.851617E+06 -2.746405E+05 -2.019272E+04 -6.859789E+05 -1.824411E-10  6.469130E-10
         7  18 -1.855494E+06 -2.826273E+05 -2.198012E+04 -6.935084E+05  7.045887E-10  6.871347E-10
         7  19 -1.723441E+06 -2.334116E+05  1.207216E+04 -6.574378E+05  2.009864E+03  1.697100E+03
         7  20 -1.719481E+06 -2.248323E+05  1.585103E+04 -6.501299E+05  7.900874E+02  1.626082E+03
         7  21 -1.706946E+06 -2.264649E+05  1.852173E+04 -6.530208E+05 -4.128916E+02  1.509889E+03
         7  22 -1.781308E+06 -2.551409E+05 -3.729401E+03 -6.730436E+05  2.098699E+03  1.730384E+03
         7  23 -1.785551E+06 -2.497365E+05 -2.170652E+03 -6.680553E+05  8.678899E+02  1.655245E+03
         7  24 -1.781223E+06 -2.545463E+05 -1.728933E+03 -6.732657E+05 -3.461072E+02  1.534933E+03
         7  25 -1.839170E+06 -2.768701E+05 -1.953123E+04 -6.886481E+05  2.187525E+03  1.763664E+03
         7  26 -1.851617E+06 -2.746405E+05 -2.019272E+04 -6.859789E+05  9.456832E+02  1.684404E+03
         7  27 -1.855494E+06 -2.826273E+05 -2.198011E+04 -6.935084E+05 -2.793316E+02  1.559974E+03
         8   1 -1.679257E+06 -2.155288E+05  2.625171E+04 -6.449959E+05  7.768319E+02 -1.574066E+03
         8   2 -1.676246E+06 -2.092599E+05  2.762940E+04 -6.391336E+05  1.904538E+03 -1.477686E+03
         8   3 -1.666606E+06 -2.110955E+05  2.798294E+04 -6.411480E+05  3.001017E+03 -1.297694E+03
         8   4 -1.781660E+06 -2.540998E+05 -1.704521E+03 -6.727425E+05  6.959508E+02 -1.604408E+03
         8   5 -1.785011E+06 -2.503151E+05 -2.048546E+03 -6.687031E+05  1.844097E+03 -1.500381E+03
         8   6 -1.781737E+06 -2.546394E+05 -3.433082E+03 -6.725403E+05  2.961004E+03 -1.312739E+03
         8   7 -1.884054E+06 -2.926701E+05 -2.966166E+04 -7.004850E+05  6.150847E+02 -1.634745E+03
         8   8 -1.893764E+06 -2.913697E+05 -3.172756E+04 -6.982679E+05  1.783668E+03 -1.523072E+03
         8   9 -1.896855E+06 -2.981825E+05 -3.485035E+04 -7.039275E+05  2.920999E+03 -1.327782E+03
         8  10 -1.679257E+06 -2.155288E+05  2.625170E+04 -6.449959E+05  2.258658E-09  8.407163E-10
         8  11 -1.676246E+06 -2.092599E+05  2.762938E+04 -6.391336E+05 -8.549157E-10  3.616895E-10
         8  12 -1.666606E+06 -2.110955E+05  2.798292E+04 -6.411480E+05 -7.610106E-10  1.091154E-10
         8  13 -1.781660E+06 -2.540998E+05 -1.704527E+03 -6.727425E+05  9.711183E-10  7.263271E-10
         8  14 -1.785011E+06 -2.503151E+05 -2.048556E+03 -6.687031E+05 -4.298531E-10  2.096250E-10
         8  15 -1.781737E+06 -2.546394E+05 -3.433102E+03 -6.725403E+05 -8.481894E-10 -1.050682E-11
         8  16 -1.884054E+06 -2.926701E+05 -2.966167E+04 -7.004850E+05 -1.006197E-09  2.440996E-10
         8  17 -1.893764E+06 -2.913697E+05 -3.172757E+04 -6.982679E+05 -1.770560E-09  7.608164E-10
         8  18 -1.896855E+06 -2.981825E+05 -3.485037E+04 -7.039275E+05  3.804721E-10 -2.580333E-11
         8  19 -1.679257E+06 -2.155288E+05  2.625171E+04 -6.449959E+05 -7.768319E+02  1.574066E+03
         8  20 -1.676246E+06 -2.092599E+05  2.762940E+04 -6.391336E+05 -1.904538E+03  1.477686E+03
         8  21 -1.666606E+06 -2.110955E+05  2.798294E+04 -6.411480E+05 -3.001017E+03  1.297694E+03
         8  22 -1.781660E+06 -2.540998E+05 -1.704521E+03 -6.727425E+05 -6.959508E+02  1.604408E+03
         8  23 -1.785011E+06 -2.503151E+05 -2.048546E+03 -6.687031E+05 -1.844097E+03  1.500381E+03
         8  24 -1.781737E+06 -2.546394E+05 -3.433082E+03 -6.725403E+05 -2.961004E+03  1.312739E+03
         8  25 -1.884054E+06 -2.926701E+05 -2.966166E+04 -7.004850E+05 -6.150847E+02  1.634745E+03
         8  26 -1.893764E+06 -2.913697E+05 -3.172756E+04 -6.982679E+05 -1.783668E+03  1.523072E+03
         8  27 -1.896855E+06 -2.981825E+05 -3.485035E+04 -7.039275E+05 -2.920999E+03  1.327782E+03
         9   1 -1.647650E+06 -2.027130E+05  3.248613E+04 -6.359048E+05  3.712854E+03 -1.174965E+03
         9   2 -1.645273E+06 -1.978610E+05  3.056147E+04 -6.319576E+05  7.492195E+03  1.736278E+01
         9   3 -1.641469E+06 -2.035470E+05  2.416783E+04 -6.312529E+05  1.122042E+04  1.345976E+03
         9   4 -1.782628E+06 -2.532962E+05 -4.294015E+03 -6.722186E+05  3.646696E+03 -1.199833E+03
         9   5 -1.783658E+06 -2.502672E+05 -7.231308E+03 -6.697559E+05  7.458844E+03  4.792169E+00
         9   6 -1.783269E+06 -2.577838E+05 -1.466438E+04 -6.705356E+05  1.121984E+04  1.345699E+03
         9   7 -1.917589E+06 -3.038784E+05 -4.107580E+04 -7.085254E+05  3.580554E+03 -1.224695E+03
         9   8 -1.922025E+06 -3.026723E+05 -4.502579E+04 -7.075466E+05  7.425501E+03 -7.775401E+00
         9   9 -1.925049E+06 -3.120192E+05 -5.349837E+04 -7.098101E+05  1.121927E+04  1.345423E+03
         9  10 -1.647650E+06 -2.027130E+05  3.248610E+04 -6.359048E+05  2.900898E-11  6.153454E-10
         9  11 -1.645273E+06 -1.978610E+05  3.056136E+04 -6.319576E+05  1.317166E-09  1.088837E-09
         9  12 -1.641469E+06 -2.035470E+05  2.416759E+04 -6.312529E+05 -9.563786E-10  6.002962E-10
         9  13 -1.782628E+06 -2.532962E+05 -4.294042E+03 -6.722186E+05 -1.190546E-09  4.538268E-10
         9  14 -1.783658E+06 -2.502672E+05 -7.231413E+03 -6.697559E+05 -3.772389E-10  7.302854E-10
         9  15 -1.783269E+06 -2.577838E+05 -1.466462E+04 -6.705356E+05  4.577229E-10  8.927380E-10
         9  16 -1.917589E+06 -3.038784E+05 -4.107583E+04 -7.085254E+05  3.482749E-10  7.564334E-10
         9  17 -1.922026E+06 -3.026723E+05 -4.502590E+04 -7.075466E+05 -2.777191E-09  3.829360E-10
         9  18 -1.925049E+06 -3.120193E+05 -5.349861E+04 -7.098101E+05 -2.469626E-10  9.736215E-10
         9  19 -1.647650E+06 -2.027130E+05  3.248613E+04 -6.359048E+05 -3.712854E+03  1.174965E+03
         9  20 -1.645273E+06 -1.978610E+05  3.056147E+04 -6.319576E+05 -7.492195E+03 -1.736278E+01
         9  21 -1.641469E+06 -2.035470E+05  2.416783E+04 -6.312529E+05 -1.122042E+04 -1.345976E+03
         9  22 -1.782628E+06 -2.532962E+05 -4.294015E+03 -6.722186E+05 -3.646696E+03  1.199833E+03
         9  23 -1.783658E+06 -2.502672E+05 -7.231308E+03 -6.697559E+05 -7.458844E+03 -4.792169E+00
         9  24 -1.783269E+06 -2.577838E+05 -1.466438E+04 -6.705356E+05 -1.121984E+04 -1.345699E+03
         9  25 -1.917589E+06 -3.038784E+05 -4.107580E+04 -7.085254E+05 -3.580554E+03  1.224695E+03
         9  26 -1.922025E+06 -3.026723E+05 -4.502579E+04 -7.075466E+05 -7.425501E+03  7.775401E+00
         9  27 -1.925049E+06 -3.120192E+05 -5.349837E+04 -7.098101E+05 -1.121927E+04 -1.345423E+03
        10   1 -1.632784E+06 -1.967136E+05  2.279739E+04 -6.336872E+05  1.405598E+04  2.306471E+03
        10   2 -1.628123E+06 -1.868302E+05  1.055595E+04 -6.294915E+05  3.035387E+04  8.318854E+03
        10   3 -1.641497E+06 -2.225088E+05 -2.602193E+04 -6.148520E+05  4.651080E+04  1.470647E+04
        10   4 -1.785653E+06 -2.518792E+05 -1.842221E+04 -6.726408E+05  1.398270E+04  2.278946E+03
        10   5 -1.778909E+06 -2.450778E+05 -3.084503E+04 -6.718537E+05  3.036924E+04  8.324509E+03
        10   6 -1.790222E+06 -2.838628E+05 -6.767924E+04 -6.606219E+05  4.661486E+04  1.474511E+04
        10   7 -1.938500E+06 -3.070442E+05 -5.964394E+04 -7.115859E+05  1.390945E+04  2.251427E+03
        10   8 -1.929673E+06 -3.033239E+05 -7.224812E+04 -7.142066E+05  3.038461E+04  8.330162E+03
        10   9 -1.938925E+06 -3.452145E+05 -1.093386E+05 -7.063815E+05  4.671889E+04  1.478374E+04
        10  10 -1.632784E+06 -1.967136E+05  2.279701E+04 -6.336873E+05  7.173029E-10  4.133684E-10
        10  11 -1.628124E+06 -1.868305E+05  1.055409E+04 -6.294917E+05  1.637887E-09 -8.044882E-10
        10  12 -1.641500E+06 -2.225096E+05 -2.602641E+04 -6.148526E+05 -8.061911E-10 -8.801072E-12
        10  13 -1.785653E+06 -2.518793E+05 -1.842259E+04 -6.726408E+05  1.140478E-09 -2.422628E-10
        10  14 -1.778910E+06 -2.450781E+05 -3.084689E+04 -6.718539E+05  2.265790E-09 -9.522522E-10
        10  15 -1.790224E+06 -2.838637E+05 -6.768374E+04 -6.606225E+05  1.557492E-09 -2.786875E-10
        10  16 -1.938500E+06 -3.070442E+05 -5.964431E+04 -7.115859E+05 -5.680823E-10  1.512532E-11
        10  17 -1.929674E+06 -3.033242E+05 -7.224999E+04 -7.142068E+05  1.624082E-09 -8.369088E-10
        10  18 -1.938928E+06 -3.452153E+05 -1.093432E+05 -7.063820E+05  1.231275E-09  5.654630E-10
        10  19 -1.632784E+06 -1.967136E+05  2.279739E+04 -6.336872E+05 -1.405598E+04 -2.306471E+03
        10  20 -1.628123E+06 -1.868302E+05  1.055595E+04 -6.294915E+05 -3.035387E+04 -8.318854E+03
        10  21 -1.641497E+06 -2.225088E+05 -2.602193E+04 -6.148520E+05 -4.651080E+04 -1.470647E+04
        10  22 -1.785653E+06 -2.518792E+05 -1.842221E+04 -6.726408E+05 -1.398270E+04 -2.278946E+03
        10  23 -1.778909E+06 -2.450778E+05 -3.084503E+04 -6.718537E+05 -3.036924E+04 -8.324509E+03
        10  24 -1.790222E+06 -2.838628E+05 -6.767924E+04 -6.606219E+05 -4.661486E+04 -1.474511E+04
        10  25 -1.938500E+06 -3.070442E+05 -5.964394E+04 -7.115859E+05 -1.390945E+04 -2.251427E+03
        10  26 -1.929673E+06 -3.033239E+05 -7.224812E+04 -7.142066E+05 -3.038461E+04 -8.330162E+03
        10  27 -1.938925E+06 -3.452145E+05 -1.093386E+05 -7.063815E+05 -4.671889E+04 -1.478374E+04
        11   1 -1.639152E+06 -2.028636E+05 -4.156370E+04 -6.547444E+05  5.932807E+04  1.922292E+04
        11   2 -1.612572E+06 -1.403422E+05 -9.105031E+04 -6.323742E+05  1.312141E+05  4.617788E+04
        11   3 -1.716848E+06 -3.902678E+05 -2.805203E+05 -5.247560E+05  2.023203E+05  7.520634E+04
        11   4 -1.801495E+06 -2.462122E+05 -8.229480E+04 -6.805080E+05  5.903731E+04  1.911554E+04
        11   5 -1.752178E+06 -2.030127E+05 -1.310743E+05 -6.805584E+05  1.314181E+05  4.625207E+04
        11   6 -1.833845E+06 -4.724047E+05 -3.202544E+05 -5.953512E+05  2.030217E+05  7.545525E+04
        11   7 -1.963812E+06 -2.895615E+05 -1.230277E+05 -7.062669E+05  5.874664E+04  1.900816E+04
        11   8 -1.891765E+06 -2.656796E+05 -1.711000E+05 -7.287318E+05  1.316220E+05  4.632624E+04
        11   9 -1.950825E+06 -5.545268E+05 -3.599894E+05 -6.659307E+05  2.037230E+05  7.570398E+04
        11  10 -1.639156E+06 -2.028650E+05 -4.157103E+04 -6.547453E+05 -4.856130E-10  7.455176E-10
        11  11 -1.612591E+06 -1.403492E+05 -9.108678E+04 -6.323791E+05  1.325654E-10  1.180333E-09
        11  12 -1.716894E+06 -3.902850E+05 -2.806081E+05 -5.247683E+05 -5.952856E-11  5.047028E-11
        11  13 -1.801499E+06 -2.462135E+05 -8.230206E+04 -6.805089E+05 -4.639832E-10  7.997726E-10
        11  14 -1.752197E+06 -2.030197E+05 -1.311109E+05 -6.805633E+05  1.784028E-09  2.722063E-10
        11  15 -1.833891E+06 -4.724219E+05 -3.203429E+05 -5.953636E+05 -2.866452E-10  7.228535E-10
        11  16 -1.963816E+06 -2.895628E+05 -1.230349E+05 -7.062678E+05  3.569741E-10  7.685760E-10
        11  17 -1.891784E+06 -2.656866E+05 -1.711368E+05 -7.287368E+05  9.896802E-10  6.961896E-10
        11  18 -1.950871E+06 -5.545441E+05 -3.600785E+05 -6.659432E+05  2.626718E-10 -8.911315E-11
        11  19 -1.639152E+06 -2.028636E+05 -4.156370E+04 -6.547444E+05 -5.932807E+04 -1.922292E+04
        11  20 -1.612572E+06 -1.403422E+05 -9.105031E+04 -6.323742E+05 -1.312141E+05 -4.617788E+04
        11  21 -1.716848E+06 -3.902678E+05 -2.805203E+05 -5.247560E+05 -2.023203E+05 -7.520634E+04
        11  22 -1.801495E+06 -2.462122E+05 -8.229480E+04 -6.805080E+05 -5.903731E+04 -1.911554E+04
        11  23 -1.752178E+06 -2.030127E+05 -1.310743E+05 -6.805584E+05 -1.314181E+05 -4.625207E+04
        11  24 -1.833845E+06 -4.724047E+05 -3.202544E+05 -5.953512E+05 -2.030217E+05 -7.545525E+04
        11  25 -1.963812E+06 -2.895615E+05 -1.230277E+05 -7.062669E+05 -5.874664E+04 -1.900816E+04
        11  26 -1.891765E+06 -2.656796E+05 -1.711000E+05 -7.287318E+05 -1.316220E+05 -4.632624E+04
        11  27 -1.950825E+06 -5.545268E+05 -3.599894E+05 -6.659307E+05 -2.037230E+05 -7.570398E+04
        12   1  1.698233E+04 -1.545098E+05  1.851105E+04 -1.868731E+02  3.133068E+02 -1.508059E+02
        12   2  1.654248E+04 -1.550388E+05  1.871878E+04  1.795977E+02  3.214031E+02 -1.133634E+03
        12   3  1.780033E+04 -1.547685E+05  2.004035E+04 -1.358186E+02  2.949604E+02 -2.116496E+03
        12   4  1.251835E+02 -2.219363E+05  1.665671E+03 -1.517132E+02  3.133090E+02 -1.526147E+02
        12   5 -2.821926E+02 -2.223357E+05  1.906157E+03  1.895527E+02  3.214050E+02 -1.132863E+03